 -1.71428570E-03     0.0000000    
 -1.71278568E-03     0.0000000    
 -1.71128567E-03     0.0000000    
 -1.70978566E-03     0.0000000    
 -1.70828577E-03     0.0000000    
 -1.70678576E-03     0.0000000    
 -1.70528574E-03     0.0000000    
 -1.70378573E-03     0.0000000    
 -1.70228572E-03     0.0000000    
 -1.70078571E-03     0.0000000    
 -1.69928570E-03     0.0000000    
 -1.69778569E-03     0.0000000    
 -1.69628568E-03     0.0000000    
 -1.69478566E-03     0.0000000    
 -1.69328577E-03     0.0000000    
 -1.69178576E-03     0.0000000    
 -1.69028575E-03     0.0000000    
 -1.68878573E-03     0.0000000    
 -1.68728572E-03     0.0000000    
 -1.68578571E-03     0.0000000    
 -1.68428570E-03     0.0000000    
 -1.68278569E-03     0.0000000    
 -1.68128568E-03     0.0000000    
 -1.67978567E-03     0.0000000    
 -1.67828577E-03     0.0000000    
 -1.67678576E-03     0.0000000    
 -1.67528575E-03     0.0000000    
 -1.67378574E-03     0.0000000    
 -1.67228573E-03     0.0000000    
 -1.67078571E-03     0.0000000    
 -1.66928570E-03     0.0000000    
 -1.66778569E-03     0.0000000    
 -1.66628568E-03     0.0000000    
 -1.66478567E-03     0.0000000    
 -1.66328566E-03     0.0000000    
 -1.66178576E-03     0.0000000    
 -1.66028575E-03     0.0000000    
 -1.65878574E-03     0.0000000    
 -1.65728573E-03     0.0000000    
 -1.65578572E-03     0.0000000    
 -1.65428570E-03     0.0000000    
 -1.65278569E-03     0.0000000    
 -1.65128568E-03     0.0000000    
 -1.64978567E-03     0.0000000    
 -1.64828566E-03     0.0000000    
 -1.64678576E-03     0.0000000    
 -1.64528575E-03     0.0000000    
 -1.64378574E-03     0.0000000    
 -1.64228573E-03     0.0000000    
 -1.64078572E-03     0.0000000    
 -1.63928571E-03     0.0000000    
 -1.63778570E-03     0.0000000    
 -1.63628568E-03     0.0000000    
 -1.63478567E-03     0.0000000    
 -1.63328566E-03     0.0000000    
 -1.63178577E-03     0.0000000    
 -1.63028575E-03     0.0000000    
 -1.62878574E-03     0.0000000    
 -1.62728573E-03     0.0000000    
 -1.62578572E-03     0.0000000    
 -1.62428571E-03     0.0000000    
 -1.62278570E-03     0.0000000    
 -1.62128569E-03     0.0000000    
 -1.61978567E-03     0.0000000    
 -1.61828566E-03     0.0000000    
 -1.61678577E-03     0.0000000    
 -1.61528576E-03     0.0000000    
 -1.61378575E-03     0.0000000    
 -1.61228573E-03     0.0000000    
 -1.61078572E-03     0.0000000    
 -1.60928571E-03     0.0000000    
 -1.60778570E-03     0.0000000    
 -1.60628569E-03     0.0000000    
 -1.60478568E-03     0.0000000    
 -1.60328567E-03     0.0000000    
 -1.60178577E-03     0.0000000    
 -1.60028576E-03     0.0000000    
 -1.59878575E-03     0.0000000    
 -1.59728574E-03     0.0000000    
 -1.59578572E-03     0.0000000    
 -1.59428571E-03     0.0000000    
 -1.59278570E-03     0.0000000    
 -1.59128569E-03     0.0000000    
 -1.58978568E-03     0.0000000    
 -1.58828567E-03     0.0000000    
 -1.58678566E-03     0.0000000    
 -1.58528576E-03     0.0000000    
 -1.58378575E-03     0.0000000    
 -1.58228574E-03     0.0000000    
 -1.58078573E-03     0.0000000    
 -1.57928572E-03     0.0000000    
 -1.57778570E-03     0.0000000    
 -1.57628569E-03     0.0000000    
 -1.57478568E-03     0.0000000    
 -1.57328567E-03     0.0000000    
 -1.57178566E-03     0.0000000    
 -1.57028576E-03     0.0000000    
 -1.56878575E-03     0.0000000    
 -1.56728574E-03     0.0000000    
 -1.56578573E-03     0.0000000    
 -1.56428572E-03     0.0000000    
 -1.56278571E-03     0.0000000    
 -1.56128570E-03     0.0000000    
 -1.55978568E-03     0.0000000    
 -1.55828567E-03     0.0000000    
 -1.55678566E-03     0.0000000    
 -1.55528577E-03     0.0000000    
 -1.55378575E-03     0.0000000    
 -1.55228574E-03     0.0000000    
 -1.55078573E-03     0.0000000    
 -1.54928572E-03     0.0000000    
 -1.54778571E-03     0.0000000    
 -1.54628570E-03     0.0000000    
 -1.54478569E-03     0.0000000    
 -1.54328567E-03     0.0000000    
 -1.54178566E-03     0.0000000    
 -1.54028577E-03     0.0000000    
 -1.53878576E-03     0.0000000    
 -1.53728575E-03     0.0000000    
 -1.53578573E-03     0.0000000    
 -1.53428572E-03     0.0000000    
 -1.53278571E-03     0.0000000    
 -1.53128570E-03     0.0000000    
 -1.52978569E-03     0.0000000    
 -1.52828568E-03     0.0000000    
 -1.52678567E-03     0.0000000    
 -1.52528577E-03     0.0000000    
 -1.52378576E-03     0.0000000    
 -1.52228575E-03     0.0000000    
 -1.52078574E-03     0.0000000    
 -1.51928572E-03     0.0000000    
 -1.51778571E-03     0.0000000    
 -1.51628570E-03     0.0000000    
 -1.51478569E-03     0.0000000    
 -1.51328568E-03     0.0000000    
 -1.51178567E-03     0.0000000    
 -1.51028577E-03     0.0000000    
 -1.50878576E-03     0.0000000    
 -1.50728575E-03     0.0000000    
 -1.50578574E-03     0.0000000    
 -1.50428573E-03     0.0000000    
 -1.50278572E-03     0.0000000    
 -1.50128570E-03     0.0000000    
 -1.49978569E-03     0.0000000    
 -1.49828568E-03     0.0000000    
 -1.49678567E-03     0.0000000    
 -1.49528566E-03     0.0000000    
 -1.49378576E-03     0.0000000    
 -1.49228575E-03     0.0000000    
 -1.49078574E-03     0.0000000    
 -1.48928573E-03     0.0000000    
 -1.48778572E-03     0.0000000    
 -1.48628571E-03     0.0000000    
 -1.48478569E-03     0.0000000    
 -1.48328568E-03     0.0000000    
 -1.48178567E-03     0.0000000    
 -1.48028566E-03     0.0000000    
 -1.47878577E-03     0.0000000    
 -1.47728575E-03     0.0000000    
 -1.47578574E-03     0.0000000    
 -1.47428573E-03     0.0000000    
 -1.47278572E-03     0.0000000    
 -1.47128571E-03     0.0000000    
 -1.46978570E-03     0.0000000    
 -1.46828569E-03     0.0000000    
 -1.46678567E-03     0.0000000    
 -1.46528566E-03     0.0000000    
 -1.46378577E-03     0.0000000    
 -1.46228576E-03     0.0000000    
 -1.46078574E-03     0.0000000    
 -1.45928573E-03     0.0000000    
 -1.45778572E-03     0.0000000    
 -1.45628571E-03     0.0000000    
 -1.45478570E-03     0.0000000    
 -1.45328569E-03     0.0000000    
 -1.45178568E-03     0.0000000    
 -1.45028566E-03     0.0000000    
 -1.44878577E-03     0.0000000    
 -1.44728576E-03     0.0000000    
 -1.44578575E-03     0.0000000    
 -1.44428574E-03     0.0000000    
 -1.44278572E-03     0.0000000    
 -1.44128571E-03     0.0000000    
 -1.43978570E-03     0.0000000    
 -1.43828569E-03     0.0000000    
 -1.43678568E-03     0.0000000    
 -1.43528567E-03     0.0000000    
 -1.43378577E-03     0.0000000    
 -1.43228576E-03     0.0000000    
 -1.43078575E-03     0.0000000    
 -1.42928574E-03     0.0000000    
 -1.42778573E-03     0.0000000    
 -1.42628571E-03     0.0000000    
 -1.42478570E-03     0.0000000    
 -1.42328569E-03     0.0000000    
 -1.42178568E-03     0.0000000    
 -1.42028567E-03     0.0000000    
 -1.41878566E-03     0.0000000    
 -1.41728576E-03     0.0000000    
 -1.41578575E-03     0.0000000    
 -1.41428574E-03     0.0000000    
 -1.41278573E-03     0.0000000    
 -1.41128572E-03     0.0000000    
 -1.40978571E-03     0.0000000    
 -1.40828569E-03     0.0000000    
 -1.40678568E-03     0.0000000    
 -1.40528567E-03     0.0000000    
 -1.40378566E-03     0.0000000    
 -1.40228576E-03     0.0000000    
 -1.40078575E-03     0.0000000    
 -1.39928574E-03     0.0000000    
 -1.39778573E-03     0.0000000    
 -1.39628572E-03     0.0000000    
 -1.39478571E-03     0.0000000    
 -1.39328570E-03     0.0000000    
 -1.39178568E-03     0.0000000    
 -1.39028567E-03     0.0000000    
 -1.38878566E-03     0.0000000    
 -1.38728577E-03     0.0000000    
 -1.38578576E-03     0.0000000    
 -1.38428574E-03     0.0000000    
 -1.38278573E-03     0.0000000    
 -1.38128572E-03     0.0000000    
 -1.37978571E-03     0.0000000    
 -1.37828570E-03     0.0000000    
 -1.37678569E-03     0.0000000    
 -1.37528568E-03     0.0000000    
 -1.37378566E-03     0.0000000    
 -1.37228577E-03     0.0000000    
 -1.37078576E-03     0.0000000    
 -1.36928575E-03     0.0000000    
 -1.36778574E-03     0.0000000    
 -1.36628572E-03     0.0000000    
 -1.36478571E-03     0.0000000    
 -1.36328570E-03     0.0000000    
 -1.36178569E-03     0.0000000    
 -1.36028568E-03     0.0000000    
 -1.35878567E-03     0.0000000    
 -1.35728577E-03     0.0000000    
 -1.35578576E-03     0.0000000    
 -1.35428575E-03     0.0000000    
 -1.35278574E-03     0.0000000    
 -1.35128573E-03     0.0000000    
 -1.34978571E-03     0.0000000    
 -1.34828570E-03     0.0000000    
 -1.34678569E-03     0.0000000    
 -1.34528568E-03     0.0000000    
 -1.34378567E-03     0.0000000    
 -1.34228566E-03     0.0000000    
 -1.34078576E-03     0.0000000    
 -1.33928575E-03     0.0000000    
 -1.33778574E-03     0.0000000    
 -1.33628573E-03     0.0000000    
 -1.33478572E-03     0.0000000    
 -1.33328571E-03     0.0000000    
 -1.33178569E-03     0.0000000    
 -1.33028568E-03     0.0000000    
 -1.32878567E-03     0.0000000    
 -1.32728566E-03     0.0000000    
 -1.32578576E-03     0.0000000    
 -1.32428575E-03     0.0000000    
 -1.32278574E-03     0.0000000    
 -1.32128573E-03     0.0000000    
 -1.31978572E-03     0.0000000    
 -1.31828571E-03     0.0000000    
 -1.31678570E-03     0.0000000    
 -1.31528568E-03     0.0000000    
 -1.31378567E-03     0.0000000    
 -1.31228566E-03     0.0000000    
 -1.31078577E-03     0.0000000    
 -1.30928576E-03     0.0000000    
 -1.30778574E-03     0.0000000    
 -1.30628573E-03     0.0000000    
 -1.30478572E-03     0.0000000    
 -1.30328571E-03     0.0000000    
 -1.30178570E-03     0.0000000    
 -1.30028569E-03     0.0000000    
 -1.29878568E-03     0.0000000    
 -1.29728566E-03     0.0000000    
 -1.29578577E-03     0.0000000    
 -1.29428576E-03     0.0000000    
 -1.29278575E-03     0.0000000    
 -1.29128573E-03     0.0000000    
 -1.28978572E-03     0.0000000    
 -1.28828571E-03     0.0000000    
 -1.28678570E-03     0.0000000    
 -1.28528569E-03     0.0000000    
 -1.28378568E-03     0.0000000    
 -1.28228567E-03     0.0000000    
 -1.28078577E-03     0.0000000    
 -1.27928576E-03     0.0000000    
 -1.27778575E-03     0.0000000    
 -1.27628574E-03     0.0000000    
 -1.27478573E-03     0.0000000    
 -1.27328571E-03     0.0000000    
 -1.27178570E-03     0.0000000    
 -1.27028569E-03     0.0000000    
 -1.26878568E-03     0.0000000    
 -1.26728567E-03     0.0000000    
 -1.26578566E-03     0.0000000    
 -1.26428576E-03     0.0000000    
 -1.26278575E-03     0.0000000    
 -1.26128574E-03     0.0000000    
 -1.25978573E-03     0.0000000    
 -1.25828572E-03     0.0000000    
 -1.25678570E-03     0.0000000    
 -1.25528569E-03     0.0000000    
 -1.25378568E-03     0.0000000    
 -1.25228567E-03     0.0000000    
 -1.25078566E-03     0.0000000    
 -1.24928576E-03     0.0000000    
 -1.24778575E-03     0.0000000    
 -1.24628574E-03     0.0000000    
 -1.24478573E-03     0.0000000    
 -1.24328572E-03     0.0000000    
 -1.24178571E-03     0.0000000    
 -1.24028570E-03     0.0000000    
 -1.23878568E-03     0.0000000    
 -1.23728567E-03     0.0000000    
 -1.23578566E-03     0.0000000    
 -1.23428577E-03     0.0000000    
 -1.23278575E-03     0.0000000    
 -1.23128574E-03     0.0000000    
 -1.22978573E-03     0.0000000    
 -1.22828572E-03     0.0000000    
 -1.22678571E-03     0.0000000    
 -1.22528570E-03     0.0000000    
 -1.22378569E-03     0.0000000    
 -1.22228567E-03     0.0000000    
 -1.22078566E-03     0.0000000    
 -1.21928577E-03    -0.0000000    
 -1.21778576E-03    -0.0000000    
 -1.21628575E-03    -0.0000000    
 -1.21478573E-03    -0.0000000    
 -1.21328572E-03    -0.0000000    
 -1.21178571E-03    -0.0000000    
 -1.21028570E-03    -0.0000000    
 -1.20878569E-03    -0.0000000    
 -1.20728568E-03    -0.0000000    
 -1.20578567E-03    -0.0000000    
 -1.20428577E-03    -0.0000000    
 -1.20278576E-03    -0.0000000    
 -1.20128575E-03    -0.0000000    
 -1.19978574E-03    -0.0000000    
 -1.19828572E-03    -0.0000000    
 -1.19678571E-03    -0.0000000    
 -1.19528570E-03    -0.0000000    
 -1.19378569E-03    -0.0000000    
 -1.19228568E-03    -0.0000000    
 -1.19078567E-03    -0.0000000    
 -1.18928566E-03    -0.0000000    
 -1.18778576E-03    -0.0000000    
 -1.18628575E-03    -0.0000000    
 -1.18478574E-03    -0.0000000    
 -1.18328573E-03    -0.0000000    
 -1.18178572E-03    -0.0000000    
 -1.18028570E-03    1.20831682E-38
 -1.17878569E-03    2.96789998E-38
 -1.17728568E-03    5.35920320E-38
 -1.17578567E-03    8.46594523E-38
 -1.17428566E-03    1.23765068E-37
 -1.17278576E-03    1.71824000E-37
 -1.17128575E-03    2.29723265E-37
 -1.16978574E-03    2.98363819E-37
 -1.16828573E-03    3.78642145E-37
 -1.16678572E-03    4.71441735E-37
 -1.16528571E-03    5.77620025E-37
 -1.16378570E-03    6.97972147E-37
 -1.16228568E-03    8.33228927E-37
 -1.16078567E-03    9.84027565E-37
 -1.15928566E-03    1.15088414E-36
 -1.15778577E-03    1.33416394E-36
 -1.15628575E-03    1.53404865E-36
 -1.15478574E-03    1.75050724E-36
 -1.15328573E-03    1.98323704E-36
 -1.15178572E-03    2.23163789E-36
 -1.15028571E-03    2.49475932E-36
 -1.14878570E-03    2.77124981E-36
 -1.14728569E-03    3.05930333E-36
 -1.14578567E-03    3.35660317E-36
 -1.14428566E-03    3.66027374E-36
 -1.14278577E-03    3.96680771E-36
 -1.14128576E-03    4.27200612E-36
 -1.13978575E-03    4.57091308E-36
 -1.13828573E-03    4.85774762E-36
 -1.13678572E-03    5.12583947E-36
 -1.13528571E-03    5.36757130E-36
 -1.13378570E-03    5.57431094E-36
 -1.13228569E-03    5.73635468E-36
 -1.13078568E-03    5.84287345E-36
 -1.12928567E-03    5.88186730E-36
 -1.12778577E-03    5.84012735E-36
 -1.12628576E-03    5.70321067E-36
 -1.12478575E-03    5.45542595E-36
 -1.12328574E-03    5.07983742E-36
 -1.12178572E-03    4.55828391E-36
 -1.12028571E-03    3.87142220E-36
 -1.11878570E-03    2.99879324E-36
 -1.11728569E-03    1.91891507E-36
 -1.11578568E-03    6.09408604E-37
 -1.11428567E-03   -9.52843764E-37
 -1.11278577E-03   -2.79150062E-36
 -1.11128576E-03   -4.93052295E-36
 -1.10978575E-03   -7.39388960E-36
 -1.10828574E-03   -1.02052626E-35
 -1.10678573E-03   -1.33876036E-35
 -1.10528572E-03   -1.69627279E-35
 -1.10378570E-03   -2.09508034E-35
 -1.10228569E-03   -2.53697883E-35
 -1.10078568E-03   -3.02347966E-35
 -1.09928567E-03   -3.55574041E-35
 -1.09778566E-03   -4.13448828E-35
 -1.09628576E-03   -4.75993593E-35
 -1.09478575E-03   -5.43169192E-35
 -1.09328574E-03   -6.14866255E-35
 -1.09178573E-03   -6.90894796E-35
 -1.09028572E-03   -7.70973167E-35
 -1.08878571E-03   -8.54716407E-35
 -1.08728569E-03   -9.41624067E-35
 -1.08578568E-03   -1.03106754E-34
 -1.08428567E-03   -1.12227729E-34
 -1.08278566E-03   -1.21432940E-34
 -1.08128577E-03   -1.30613241E-34
 -1.07978575E-03   -1.39641405E-34
 -1.07828574E-03   -1.48370817E-34
 -1.07678573E-03   -1.56634232E-34
 -1.07528572E-03   -1.64242573E-34
 -1.07378571E-03   -1.70983873E-34
 -1.07228570E-03   -1.76622308E-34
 -1.07078569E-03   -1.80897377E-34
 -1.06928567E-03   -1.83523321E-34
 -1.06778566E-03   -1.84188738E-34
 -1.06628577E-03   -1.82556500E-34
 -1.06478576E-03   -1.78263982E-34
 -1.06328574E-03   -1.70923640E-34
 -1.06178573E-03   -1.60124015E-34
 -1.06028572E-03   -1.45431231E-34
 -1.05878571E-03   -1.26390978E-34
 -1.05728570E-03   -1.02531071E-34
 -1.05578569E-03   -7.33646917E-35
 -1.05428568E-03   -3.83942427E-35
 -1.05278566E-03    2.88398273E-36
 -1.05128577E-03    5.09743827E-35
 -1.04978576E-03    1.06375764E-34
 -1.04828575E-03    1.69574129E-34
 -1.04678574E-03    2.41034543E-34
 -1.04528572E-03    3.21192053E-34
 -1.04378571E-03    4.10441439E-34
 -1.04228570E-03    5.09126072E-34
 -1.04078569E-03    6.17525707E-34
 -1.03928568E-03    7.35843025E-34
 -1.03778567E-03    8.64189284E-34
 -1.03628577E-03    1.00256875E-33
 -1.03478576E-03    1.15086233E-33
 -1.03328575E-03    1.30881010E-33
 -1.03178574E-03    1.47599304E-33
 -1.03028573E-03    1.65181366E-33
 -1.02878571E-03    1.83547621E-33
 -1.02728570E-03    2.02596672E-33
 -1.02578569E-03    2.22203201E-33
 -1.02428568E-03    2.42215846E-33
 -1.02278567E-03    2.62455177E-33
 -1.02128566E-03    2.82711589E-33
 -1.01978576E-03    3.02743372E-33
 -1.01828575E-03    3.22274780E-33
 -1.01678574E-03    3.40994234E-33
 -1.01528573E-03    3.58552777E-33
 -1.01378572E-03    3.74562679E-33
 -1.01228571E-03    3.88596318E-33
 -1.01078569E-03    4.00185370E-33
 -1.00928568E-03    4.08820368E-33
 -1.00778567E-03    4.13950703E-33
 -1.00628566E-03    4.14985028E-33
 -1.00478576E-03    4.11292323E-33
 -1.00328575E-03    4.02203547E-33
 -1.00178574E-03    3.87013846E-33
 -1.00028573E-03    3.64985743E-33
 -9.98785719E-04    3.35352853E-33
 -9.97285708E-04    2.97324747E-33
 -9.95785696E-04    2.50092594E-33
 -9.94285685E-04    1.92835954E-33
 -9.92785674E-04    1.24730521E-33
 -9.91285662E-04    4.49571121E-34
 -9.89785767E-04   -4.72881770E-34
 -9.88285756E-04   -1.52782564E-33
 -9.86785744E-04   -2.72263906E-33
 -9.85285733E-04   -4.06416703E-33
 -9.83785721E-04   -5.55856712E-33
 -9.82285710E-04   -7.21114209E-33
 -9.80785699E-04   -9.02616194E-33
 -9.79285687E-04   -1.10066664E-32
 -9.77785676E-04   -1.31542623E-32
 -9.76285723E-04   -1.54689017E-32
 -9.74785711E-04   -1.79486556E-32
 -9.73285700E-04   -2.05894697E-32
 -9.71785688E-04   -2.33849202E-32
 -9.70285735E-04   -2.63259512E-32
 -9.68785724E-04   -2.94006183E-32
 -9.67285712E-04   -3.25938164E-32
 -9.65785701E-04   -3.58870197E-32
 -9.64285689E-04   -3.92580172E-32
 -9.62785736E-04   -4.26806453E-32
 -9.61285725E-04   -4.61245469E-32
 -9.59785713E-04   -4.95549274E-32
 -9.58285702E-04   -5.29323402E-32
 -9.56785691E-04   -5.62124807E-32
 -9.55285737E-04   -5.93460078E-32
 -9.53785726E-04   -6.22784195E-32
 -9.52285714E-04   -6.49499420E-32
 -9.50785703E-04   -6.72954588E-32
 -9.49285692E-04   -6.92445166E-32
 -9.47785738E-04   -7.07213665E-32
 -9.46285727E-04   -7.16450641E-32
 -9.44785716E-04   -7.19296689E-32
 -9.43285704E-04   -7.14844798E-32
 -9.41785693E-04   -7.02143935E-32
 -9.40285739E-04   -6.80203333E-32
 -9.38785728E-04   -6.47997726E-32
 -9.37285717E-04   -6.04473755E-32
 -9.35785705E-04   -5.48557546E-32
 -9.34285694E-04   -4.79163265E-32
 -9.32785741E-04   -3.95203140E-32
 -9.31285729E-04   -2.95598567E-32
 -9.29785718E-04   -1.79292687E-32
 -9.28285706E-04   -4.52643532E-33
 -9.26785695E-04    1.07456633E-32
 -9.25285742E-04    2.79772769E-32
 -9.23785730E-04    4.72500681E-32
 -9.22285719E-04    6.86351638E-32
 -9.20785707E-04    9.21910597E-32
 -9.19285696E-04    1.17961411E-31
 -9.17785743E-04    1.45972665E-31
 -9.16285731E-04    1.76231594E-31
 -9.14785720E-04    2.08722775E-31
 -9.13285709E-04    2.43405830E-31
 -9.11785697E-04    2.80212815E-31
 -9.10285686E-04    3.19045295E-31
 -9.08785732E-04    3.59771613E-31
 -9.07285721E-04    4.02224027E-31
 -9.05785710E-04    4.46195838E-31
 -9.04285698E-04    4.91438641E-31
 -9.02785687E-04    5.37659643E-31
 -9.01285734E-04    5.84519080E-31
 -8.99785722E-04    6.31627862E-31
 -8.98285711E-04    6.78545227E-31
 -8.96785699E-04    7.24776856E-31
 -8.95285688E-04    7.69773228E-31
 -8.93785735E-04    8.12928259E-31
 -8.92285723E-04    8.53578452E-31
 -8.90785712E-04    8.91002431E-31
 -8.89285700E-04    9.24420889E-31
 -8.87785689E-04    9.52997438E-31
 -8.86285736E-04    9.75839927E-31
 -8.84785724E-04    9.92002222E-31
 -8.83285713E-04    1.00048732E-30
 -8.81785701E-04    1.00025062E-30
 -8.80285690E-04    9.90204750E-31
 -8.78785737E-04    9.69224903E-31
 -8.77285725E-04    9.36155331E-31
 -8.75785714E-04    8.89816968E-31
 -8.74285703E-04    8.29015980E-31
 -8.72785691E-04    7.52553787E-31
 -8.71285738E-04    6.59238015E-31
 -8.69785727E-04    5.47894767E-31
 -8.68285715E-04    4.17382215E-31
 -8.66785704E-04    2.66605340E-31
 -8.65285692E-04    9.45320449E-32
 -8.63785739E-04   -9.97895022E-32
 -8.62285728E-04   -3.17212299E-31
 -8.60785716E-04   -5.58470736E-31
 -8.59285705E-04   -8.24159684E-31
 -8.57785693E-04   -1.11471236E-30
 -8.56285740E-04   -1.43037764E-30
 -8.54785729E-04   -1.77119596E-30
 -8.53285717E-04   -2.13697463E-30
 -8.51785706E-04   -2.52726264E-30
 -8.50285694E-04   -2.94132535E-30
 -8.48785741E-04   -3.37811799E-30
 -8.47285730E-04   -3.83626023E-30
 -8.45785718E-04   -4.31401048E-30
 -8.44285707E-04   -4.80923966E-30
 -8.42785696E-04   -5.31940873E-30
 -8.41285742E-04   -5.84154338E-30
 -8.39785731E-04   -6.37221306E-30
 -8.38285720E-04   -6.90751100E-30
 -8.36785708E-04   -7.44303538E-30
 -8.35285697E-04   -7.97387509E-30
 -8.33785685E-04   -8.49459689E-30
 -8.32285732E-04   -8.99923568E-30
 -8.30785721E-04   -9.48129067E-30
 -8.29285709E-04   -9.93372397E-30
 -8.27785698E-04   -1.03489650E-29
 -8.26285686E-04   -1.07189211E-29
 -8.24785733E-04   -1.10349903E-29
 -8.23285722E-04   -1.12880861E-29
 -8.21785710E-04   -1.14686638E-29
 -8.20285699E-04   -1.15667568E-29
 -8.18785687E-04   -1.15720208E-29
 -8.17285734E-04   -1.14737848E-29
 -8.15785723E-04   -1.12611125E-29
 -8.14285711E-04   -1.09228688E-29
 -8.12785700E-04   -1.04478006E-29
 -8.11285689E-04   -9.82462455E-30
 -8.09785735E-04   -9.04212373E-30
 -8.08285724E-04   -8.08925559E-30
 -8.06785712E-04   -6.95527030E-30
 -8.05285701E-04   -5.62983779E-30
 -8.03785690E-04   -4.10318509E-30
 -8.02285736E-04   -2.36624304E-30
 -8.00785725E-04   -4.10803913E-31
 -7.99285714E-04    1.77031368E-30
 -7.97785702E-04    4.18309088E-30
 -7.96285691E-04    6.83212664E-30
 -7.94785738E-04    9.72044829E-30
 -7.93285726E-04    1.28493171E-29
 -7.91785715E-04    1.62180274E-29
 -7.90285703E-04    1.98237068E-29
 -7.88785692E-04    2.36611026E-29
 -7.87285739E-04    2.77223833E-29
 -7.85785727E-04    3.19969276E-29
 -7.84285716E-04    3.64711217E-29
 -7.82785704E-04    4.11281617E-29
 -7.81285693E-04    4.59478646E-29
 -7.79785740E-04    5.09064812E-29
 -7.78285728E-04    5.59765339E-29
 -7.76785717E-04    6.11266572E-29
 -7.75285705E-04    6.63214560E-29
 -7.73785694E-04    7.15213946E-29
 -7.72285741E-04    7.66827063E-29
 -7.70785729E-04    8.17573210E-29
 -7.69285718E-04    8.66928295E-29
 -7.67785707E-04    9.14324769E-29
 -7.66285695E-04    9.59151932E-29
 -7.64785742E-04    1.00075683E-28
 -7.63285730E-04    1.03844518E-28
 -7.61785719E-04    1.07148318E-28
 -7.60285708E-04    1.09909957E-28
 -7.58785696E-04    1.12048835E-28
 -7.57285743E-04    1.13481173E-28
 -7.55785732E-04    1.14120425E-28
 -7.54285720E-04    1.13877722E-28
 -7.52785709E-04    1.12662340E-28
 -7.51285697E-04    1.10382303E-28
 -7.49785686E-04    1.06945036E-28
 -7.48285733E-04    1.02258009E-28
 -7.46785721E-04    9.62295892E-29
 -7.45285710E-04    8.87698366E-29
 -7.43785698E-04    7.97914341E-29
 -7.42285687E-04    6.92106819E-29
 -7.40785734E-04    5.69485327E-29
 -7.39285722E-04    4.29317139E-29
 -7.37785711E-04    2.70939102E-29
 -7.36285700E-04    9.37699179E-30
 -7.34785688E-04   -1.02676908E-29
 -7.33285735E-04   -3.18779744E-29
 -7.31785723E-04   -5.54794935E-29
 -7.30285712E-04   -8.10842868E-29
 -7.28785701E-04   -1.08689327E-28
 -7.27285689E-04   -1.38275114E-28
 -7.25785736E-04   -1.69804152E-28
 -7.24285725E-04   -2.03219530E-28
 -7.22785713E-04   -2.38443464E-28
 -7.21285702E-04   -2.75375915E-28
 -7.19785690E-04   -3.13893190E-28
 -7.18285737E-04   -3.53846607E-28
 -7.16785726E-04   -3.95061363E-28
 -7.15285714E-04   -4.37335309E-28
 -7.13785703E-04   -4.80437910E-28
 -7.12285691E-04   -5.24109431E-28
 -7.10785738E-04   -5.68060115E-28
 -7.09285727E-04   -6.11969632E-28
 -7.07785715E-04   -6.55486694E-28
 -7.06285704E-04   -6.98228761E-28
 -7.04785693E-04   -7.39782288E-28
 -7.03285739E-04   -7.79702819E-28
 -7.01785728E-04   -8.17515661E-28
 -7.00285716E-04   -8.52716750E-28
 -6.98785705E-04   -8.84773757E-28
 -6.97285694E-04   -9.13127587E-28
 -6.95785740E-04   -9.37194392E-28
 -6.94285729E-04   -9.56367410E-28
 -6.92785718E-04   -9.70019942E-28
 -6.91285706E-04   -9.77508247E-28
 -6.89785695E-04   -9.78174811E-28
 -6.88285741E-04   -9.71352397E-28
 -6.86785730E-04   -9.56367988E-28
 -6.85285719E-04   -9.32547701E-28
 -6.83785707E-04   -8.99221891E-28
 -6.82285696E-04   -8.55730637E-28
 -6.80785743E-04   -8.01429813E-28
 -6.79285731E-04   -7.35697439E-28
 -6.77785720E-04   -6.57940521E-28
 -6.76285708E-04   -5.67602273E-28
 -6.74785697E-04   -4.64169820E-28
 -6.73285685E-04   -3.47181926E-28
 -6.71785732E-04   -2.16237540E-28
 -6.70285721E-04   -7.10041380E-29
 -6.68785709E-04    8.87733033E-29
 -6.67285698E-04    2.63263357E-28
 -6.65785687E-04    4.52538985E-28
 -6.64285733E-04    6.56568248E-28
 -6.62785722E-04    8.75204967E-28
 -6.61285711E-04    1.10817961E-27
 -6.59785699E-04    1.35508989E-27
 -6.58285688E-04    1.61539204E-27
 -6.56785734E-04    1.88839184E-27
 -6.55285723E-04    2.17323649E-27
 -6.53785712E-04    2.46890660E-27
 -6.52285700E-04    2.77420906E-27
 -6.50785689E-04    3.08776972E-27
 -6.49285736E-04    3.40802818E-27
 -6.47785724E-04    3.73323262E-27
 -6.46285713E-04    4.06143496E-27
 -6.44785701E-04    4.39048857E-27
 -6.43285690E-04    4.71804650E-27
 -6.41785737E-04    5.04156113E-27
 -6.40285725E-04    5.35828416E-27
 -6.38785714E-04    5.66527007E-27
 -6.37285702E-04    5.95937999E-27
 -6.35785691E-04    6.23728860E-27
 -6.34285738E-04    6.49549071E-27
 -6.32785726E-04    6.73031087E-27
 -6.31285715E-04    6.93791765E-27
 -6.29785703E-04    7.11433591E-27
 -6.28285692E-04    7.25546343E-27
 -6.26785739E-04    7.35709014E-27
 -6.25285727E-04    7.41491888E-27
 -6.23785716E-04    7.42458936E-27
 -6.22285705E-04    7.38170429E-27
 -6.20785693E-04    7.28185638E-27
 -6.19285740E-04    7.12066221E-27
 -6.17785729E-04    6.89379382E-27
 -6.16285717E-04    6.59701495E-27
 -6.14785706E-04    6.22621874E-27
 -6.13285694E-04    5.77747013E-27
 -6.11785741E-04    5.24704668E-27
 -6.10285730E-04    4.63148519E-27
 -6.08785718E-04    3.92762674E-27
 -6.07285707E-04    3.13266719E-27
 -6.05785695E-04    2.24420566E-27
 -6.04285742E-04    1.26029649E-27
 -6.02785731E-04    1.79501979E-28
 -6.01285719E-04   -9.99054781E-28
 -5.99785708E-04   -2.27563607E-27
 -5.98285696E-04   -3.64983562E-27
 -5.96785743E-04   -5.12052580E-27
 -5.95285732E-04   -6.68580340E-27
 -5.93785720E-04   -8.34294055E-27
 -5.92285709E-04   -1.00883307E-26
 -5.90785698E-04   -1.19174434E-26
 -5.89285686E-04   -1.38247781E-26
 -5.87785733E-04   -1.58038206E-26
 -5.86285722E-04   -1.78470042E-26
 -5.84785710E-04   -1.99456762E-26
 -5.83285699E-04   -2.20900667E-26
 -5.81785687E-04   -2.42692626E-26
 -5.80285734E-04   -2.64711922E-26
 -5.78785723E-04   -2.86826097E-26
 -5.77285711E-04   -3.08890906E-26
 -5.75785700E-04   -3.30750334E-26
 -5.74285688E-04   -3.52236748E-26
 -5.72785735E-04   -3.73171021E-26
 -5.71285724E-04   -3.93362871E-26
 -5.69785712E-04   -4.12611231E-26
 -5.68285701E-04   -4.30704804E-26
 -5.66785689E-04   -4.47422585E-26
 -5.65285736E-04   -4.62534633E-26
 -5.63785725E-04   -4.75802872E-26
 -5.62285713E-04   -4.86982141E-26
 -5.60785702E-04   -4.95821173E-26
 -5.59285691E-04   -5.02063867E-26
 -5.57785737E-04   -5.05450669E-26
 -5.56285726E-04   -5.05719960E-26
 -5.54785714E-04   -5.02609722E-26
 -5.53285703E-04   -4.95859260E-26
 -5.51785692E-04   -4.85211056E-26
 -5.50285738E-04   -4.70412795E-26
 -5.48785727E-04   -4.51219409E-26
 -5.47285716E-04   -4.27395378E-26
 -5.45785704E-04   -3.98717018E-26
 -5.44285693E-04   -3.64974941E-26
 -5.42785740E-04   -3.25976585E-26
 -5.41285728E-04   -2.81548833E-26
 -5.39785717E-04   -2.31540721E-26
 -5.38285705E-04   -1.75826203E-26
 -5.36785694E-04   -1.14306924E-26
 -5.35285741E-04   -4.69150911E-27
 -5.33785729E-04    2.63836764E-27
 -5.32285718E-04    1.05587491E-26
 -5.30785706E-04    1.90655370E-26
 -5.29285695E-04    2.81504429E-26
 -5.27785742E-04    3.78007108E-26
 -5.26285730E-04    4.79988612E-26
 -5.24785719E-04    5.87224298E-26
 -5.23285707E-04    6.99437235E-26
 -5.21785696E-04    8.16296008E-26
 -5.20285743E-04    9.37412658E-26
 -5.18785731E-04    1.06234086E-25
 -5.17285720E-04    1.19057402E-25
 -5.15785709E-04    1.32154441E-25
 -5.14285697E-04    1.45462179E-25
 -5.12785686E-04    1.58911272E-25
 -5.11285733E-04    1.72426012E-25
 -5.09785721E-04    1.85924359E-25
 -5.08285710E-04    1.99317947E-25
 -5.06785698E-04    2.12512201E-25
 -5.05285687E-04    2.25406453E-25
 -5.03785734E-04    2.37894145E-25
 -5.02285722E-04    2.49863039E-25
 -5.00785711E-04    2.61195494E-25
 -4.99285699E-04    2.71768868E-25
 -4.97785688E-04    2.81455858E-25
 -4.96285735E-04    2.90125020E-25
 -4.94785723E-04    2.97641238E-25
 -4.93285712E-04    3.03866336E-25
 -4.91785700E-04    3.08659726E-25
 -4.90285689E-04    3.11879142E-25
 -4.88785736E-04    3.13381355E-25
 -4.87285724E-04    3.13023113E-25
 -4.85785713E-04    3.10661929E-25
 -4.84285702E-04    3.06157090E-25
 -4.82785719E-04    2.99370741E-25
 -4.81285708E-04    2.90168851E-25
 -4.79785725E-04    2.78422441E-25
 -4.78285714E-04    2.64008720E-25
 -4.76785703E-04    2.46812341E-25
 -4.75285720E-04    2.26726661E-25
 -4.73785709E-04    2.03655055E-25
 -4.72285727E-04    1.77512291E-25
 -4.70785715E-04    1.48225867E-25
 -4.69285704E-04    1.15737457E-25
 -4.67785721E-04    8.00042577E-26
 -4.66285710E-04    4.10004385E-26
 -4.64785728E-04   -1.28145533E-27
 -4.63285716E-04   -4.68291099E-26
 -4.61785705E-04   -9.56090666E-26
 -4.60285723E-04   -1.47565381E-25
 -4.58785711E-04   -2.02618320E-25
 -4.57285729E-04   -2.60663136E-25
 -4.55785717E-04   -3.21568844E-25
 -4.54285706E-04   -3.85177163E-25
 -4.52785724E-04   -4.51301457E-25
 -4.51285712E-04   -5.19725920E-25
 -4.49785701E-04   -5.90204627E-25
 -4.48285718E-04   -6.62461032E-25
 -4.46785707E-04   -7.36187282E-25
 -4.45285725E-04   -8.11043970E-25
 -4.43785713E-04   -8.86659837E-25
 -4.42285702E-04   -9.62631777E-25
 -4.40785720E-04   -1.03852503E-24
 -4.39285708E-04   -1.11387347E-24
 -4.37785726E-04   -1.18818032E-24
 -4.36285714E-04   -1.26091882E-24
 -4.34785703E-04   -1.33153341E-24
 -4.33285721E-04   -1.39944082E-24
 -4.31785709E-04   -1.46403187E-24
 -4.30285727E-04   -1.52467318E-24