 -1.71428570E-03     0.0000000    
 -1.71278568E-03     0.0000000    
 -1.71128567E-03     0.0000000    
 -1.70978566E-03     0.0000000    
 -1.70828577E-03     0.0000000    
 -1.70678576E-03     0.0000000    
 -1.70528574E-03     0.0000000    
 -1.70378573E-03     0.0000000    
 -1.70228572E-03     0.0000000    
 -1.70078571E-03     0.0000000    
 -1.69928570E-03     0.0000000    
 -1.69778569E-03     0.0000000    
 -1.69628568E-03     0.0000000    
 -1.69478566E-03     0.0000000    
 -1.69328577E-03     0.0000000    
 -1.69178576E-03     0.0000000    
 -1.69028575E-03     0.0000000    
 -1.68878573E-03     0.0000000    
 -1.68728572E-03     0.0000000    
 -1.68578571E-03   -1.57755238E-38
 -1.68428570E-03   -6.74536988E-38
 -1.68278569E-03   -2.24755180E-37
 -1.68128568E-03   -6.74238366E-37
 -1.67978567E-03   -1.88824022E-36
 -1.67828577E-03   -5.00510306E-36
 -1.67678576E-03   -1.26489161E-35
 -1.67528575E-03   -3.06300423E-35
 -1.67378574E-03   -7.13502858E-35
 -1.67228573E-03   -1.60405216E-34
 -1.67078571E-03   -3.49010701E-34
 -1.66928570E-03   -7.36756742E-34
 -1.66778569E-03   -1.51222270E-33
 -1.66628568E-03   -3.02376820E-33
 -1.66478567E-03   -5.90020141E-33
 -1.66328566E-03   -1.12522073E-32
 -1.66178576E-03   -2.10020183E-32
 -1.66028575E-03   -3.84130160E-32
 -1.65878574E-03   -6.89255579E-32
 -1.65728573E-03   -1.21454133E-31
 -1.65578572E-03   -2.10368232E-31
 -1.65428570E-03   -3.58471258E-31
 -1.65278569E-03   -6.01414319E-31
 -1.65128568E-03   -9.94143314E-31
 -1.64978567E-03   -1.62018668E-30
 -1.64828566E-03   -2.60485768E-30
 -1.64678576E-03   -4.13377428E-30
 -1.64528575E-03   -6.47851010E-30
 -1.64378574E-03   -1.00316733E-29
 -1.64228573E-03   -1.53542779E-29
 -1.64078572E-03   -2.32389222E-29
 -1.63928571E-03   -3.47930078E-29
 -1.63778570E-03   -5.15469432E-29
 -1.63628568E-03   -7.55930512E-29
 -1.63478567E-03   -1.09761468E-28
 -1.63328566E-03   -1.57839841E-28
 -1.63178577E-03   -2.24843534E-28
 -1.63028575E-03   -3.17342699E-28
 -1.62878574E-03   -4.43851211E-28
 -1.62728573E-03   -6.15279391E-28
 -1.62578572E-03   -8.45448964E-28
 -1.62428571E-03   -1.15166065E-27
 -1.62278570E-03   -1.55529696E-27
 -1.62128569E-03   -2.08242677E-27
 -1.61978567E-03   -2.76436217E-27
 -1.61828566E-03   -3.63808860E-27
 -1.61678577E-03   -4.74646244E-27
 -1.61528576E-03   -6.13802386E-27
 -1.61378575E-03   -7.86621511E-27
 -1.61228573E-03   -9.98773557E-27
 -1.61078572E-03   -1.25596694E-26
 -1.60928571E-03   -1.56349273E-26
 -1.60778570E-03   -1.92554199E-26
 -1.60628569E-03   -2.34422113E-26
 -1.60478568E-03   -2.81817600E-26
 -1.60328567E-03   -3.34071069E-26
 -1.60178577E-03   -3.89726407E-26
 -1.60028576E-03   -4.46208447E-26
 -1.59878575E-03   -4.99389629E-26
 -1.59728574E-03   -5.43034344E-26
 -1.59578572E-03   -5.68092264E-26
 -1.59428571E-03   -5.61810898E-26
 -1.59278570E-03   -5.06630108E-26
 -1.59128569E-03   -3.78818834E-26
 -1.58978568E-03   -1.46807307E-26
 -1.58828567E-03    2.30834398E-26
 -1.58678566E-03    8.07830915E-26
 -1.58528576E-03    1.65310634E-25
 -1.58378575E-03    2.85422571E-25
 -1.58228574E-03    4.52144256E-25
 -1.58078573E-03    6.79242076E-25
 -1.57928572E-03    9.83770390E-25
 -1.57778570E-03    1.38670033E-24
 -1.57628569E-03    1.91363594E-24
 -1.57478568E-03    2.59562572E-24
 -1.57328567E-03    3.47007133E-24
 -1.57178566E-03    4.58173806E-24
 -1.57028576E-03    5.98386811E-24
 -1.56878575E-03    7.73939286E-24
 -1.56728574E-03    9.92224040E-24
 -1.56578573E-03    1.26187271E-23
 -1.56428572E-03    1.59290155E-23
 -1.56278571E-03    1.99686207E-23
 -1.56128570E-03    2.48699287E-23
 -1.55978568E-03    3.07836939E-23
 -1.55828567E-03    3.78804664E-23
 -1.55678566E-03    4.63518796E-23
 -1.55528577E-03    5.64117336E-23
 -1.55378575E-03    6.82967815E-23
 -1.55228574E-03    8.22671105E-23
 -1.55078573E-03    9.86060102E-23
 -1.54928572E-03    1.17619161E-22
 -1.54778571E-03    1.39633012E-22
 -1.54628570E-03    1.64992126E-22
 -1.54478569E-03    1.94055365E-22
 -1.54328567E-03    2.27190552E-22
 -1.54178566E-03    2.64767594E-22
 -1.54028577E-03    3.07149494E-22
 -1.53878576E-03    3.54681228E-22
 -1.53728575E-03    4.07676096E-22
 -1.53578573E-03    4.66399205E-22
 -1.53428572E-03    5.31047782E-22
 -1.53278571E-03    6.01727952E-22
 -1.53128570E-03    6.78427699E-22
 -1.52978569E-03    7.60985817E-22
 -1.52828568E-03    8.49056268E-22
 -1.52678567E-03    9.42067740E-22
 -1.52528577E-03    1.03917866E-21
 -1.52378576E-03    1.13922682E-21
 -1.52228575E-03    1.24067398E-21
 -1.52078574E-03    1.34154508E-21
 -1.51928572E-03    1.43936273E-21
 -1.51778571E-03    1.53107668E-21
 -1.51628570E-03    1.61298876E-21
 -1.51478569E-03    1.68067449E-21
 -1.51328568E-03    1.72890098E-21
 -1.51178567E-03    1.75154344E-21
 -1.51028577E-03    1.74150054E-21
 -1.50878576E-03    1.69061025E-21
 -1.50728575E-03    1.58956911E-21
 -1.50578574E-03    1.42785581E-21
 -1.50428573E-03    1.19366211E-21
 -1.50278572E-03    8.73833922E-22
 -1.50128570E-03    4.53826302E-22
 -1.49978569E-03   -8.23245333E-23
 -1.49828568E-03   -7.52008000E-22
 -1.49678567E-03   -1.57401979E-21
 -1.49528566E-03   -2.56851233E-21
 -1.49378576E-03   -3.75690813E-21
 -1.49228575E-03   -5.16177302E-21
 -1.49078574E-03   -6.80664066E-21
 -1.48928573E-03   -8.71578320E-21
 -1.48778572E-03   -1.09139220E-20
 -1.48628571E-03   -1.34258732E-20
 -1.48478569E-03   -1.62761163E-20
 -1.48328568E-03   -1.94882864E-20
 -1.48178567E-03   -2.30845785E-20
 -1.48028566E-03   -2.70850614E-20
 -1.47878577E-03   -3.15068927E-20
 -1.47728575E-03   -3.63634316E-20
 -1.47578574E-03   -4.16632489E-20
 -1.47428573E-03   -4.74090296E-20
 -1.47278572E-03   -5.35963535E-20
 -1.47128571E-03   -6.02123896E-20
 -1.46978570E-03   -6.72344551E-20
 -1.46828569E-03   -7.46285063E-20
 -1.46678567E-03   -8.23475037E-20
 -1.46528566E-03   -9.03297062E-20
 -1.46378577E-03   -9.84968869E-20
 -1.46228576E-03   -1.06752505E-19
 -1.46078574E-03   -1.14979824E-19
 -1.45928573E-03   -1.23040014E-19
 -1.45778572E-03   -1.30770301E-19
 -1.45628571E-03   -1.37982127E-19
 -1.45478570E-03   -1.44459391E-19
 -1.45328569E-03   -1.49956846E-19
 -1.45178568E-03   -1.54198628E-19
 -1.45028566E-03   -1.56877065E-19
 -1.44878577E-03   -1.57651681E-19
 -1.44728576E-03   -1.56148590E-19
 -1.44578575E-03   -1.51960278E-19
 -1.44428574E-03   -1.44645843E-19
 -1.44278572E-03   -1.33731815E-19
 -1.44128571E-03   -1.18713511E-19
 -1.43978570E-03   -9.90571660E-20
 -1.43828569E-03   -7.42027797E-20
 -1.43678568E-03   -4.35678549E-20
 -1.43528567E-03   -6.55201604E-21
 -1.43378577E-03    3.74573166E-20
 -1.43228576E-03    8.90781948E-20
 -1.43078575E-03    1.48926257E-19
 -1.42928574E-03    2.17605628E-19
 -1.42778573E-03    2.95698535E-19
 -1.42628571E-03    3.83753643E-19
 -1.42478570E-03    4.82272974E-19
 -1.42328569E-03    5.91697492E-19
 -1.42178568E-03    7.12391311E-19
 -1.42028567E-03    8.44624611E-19
 -1.41878566E-03    9.88554968E-19
 -1.41728576E-03    1.14420782E-18
 -1.41578575E-03    1.31145526E-18
 -1.41428574E-03    1.48999444E-18
 -1.41278573E-03    1.67932409E-18
 -1.41128572E-03    1.87872114E-18
 -1.40978571E-03    2.08721636E-18
 -1.40828569E-03    2.30356979E-18
 -1.40678568E-03    2.52624619E-18
 -1.40528567E-03    2.75339040E-18
 -1.40378566E-03    2.98280398E-18
 -1.40228576E-03    3.21192247E-18
 -1.40078575E-03    3.43779427E-18
 -1.39928574E-03    3.65706061E-18
 -1.39778573E-03    3.86594026E-18
 -1.39628572E-03    4.06021397E-18
 -1.39478571E-03    4.23521519E-18
 -1.39328570E-03    4.38582410E-18
 -1.39178568E-03    4.50646509E-18
 -1.39028567E-03    4.59111255E-18
 -1.38878566E-03    4.63330000E-18
 -1.38728577E-03    4.62613703E-18
 -1.38578576E-03    4.56233369E-18
 -1.38428574E-03    4.43423361E-18
 -1.38278573E-03    4.23385448E-18
 -1.38128572E-03    3.95293940E-18
 -1.37978571E-03    3.58301637E-18
 -1.37828570E-03    3.11547010E-18
 -1.37678569E-03    2.54162348E-18
 -1.37528568E-03    1.85283039E-18
 -1.37378566E-03    1.04058142E-18
 -1.37228577E-03    9.66194906E-20
 -1.37078576E-03   -9.86931213E-19
 -1.36928575E-03   -2.21742493E-18
 -1.36778574E-03   -3.60154273E-18
 -1.36628572E-03   -5.14512876E-18
 -1.36478571E-03   -6.85301601E-18
 -1.36328570E-03   -8.72884327E-18
 -1.36178569E-03   -1.07748613E-17
 -1.36028568E-03   -1.29917301E-17
 -1.35878567E-03   -1.53783116E-17
 -1.35728577E-03   -1.79314575E-17
 -1.35578576E-03   -2.06457895E-17
 -1.35428575E-03   -2.35134824E-17
 -1.35278574E-03   -2.65240476E-17
 -1.35128573E-03   -2.96641162E-17
 -1.34978571E-03   -3.29172356E-17
 -1.34828570E-03   -3.62636609E-17
 -1.34678569E-03   -3.96801782E-17
 -1.34528568E-03   -4.31399240E-17
 -1.34378567E-03   -4.66122396E-17
 -1.34228566E-03   -5.00625324E-17
 -1.34078576E-03   -5.34521829E-17
 -1.33928575E-03   -5.67384689E-17
 -1.33778574E-03   -5.98745157E-17
 -1.33628573E-03   -6.28093195E-17
 -1.33478572E-03   -6.54877766E-17
 -1.33328571E-03   -6.78507735E-17
 -1.33178569E-03   -6.98353386E-17
 -1.33028568E-03   -7.13748276E-17
 -1.32878567E-03   -7.23992081E-17
 -1.32728566E-03   -7.28353440E-17
 -1.32578576E-03   -7.26074062E-17
 -1.32428575E-03   -7.16373218E-17
 -1.32278574E-03   -6.98452979E-17
 -1.32128573E-03   -6.71504229E-17
 -1.31978572E-03   -6.34713353E-17
 -1.31828571E-03   -5.87269912E-17
 -1.31678570E-03   -5.28374686E-17
 -1.31528568E-03   -4.57248833E-17
 -1.31378567E-03   -3.73143623E-17
 -1.31228566E-03   -2.75350873E-17
 -1.31078577E-03   -1.63214150E-17
 -1.30928576E-03   -3.61405136E-18
 -1.30778574E-03    1.06387007E-17
 -1.30628573E-03    2.64796512E-17
 -1.30478572E-03    4.39413826E-17
 -1.30328571E-03    6.30448740E-17
 -1.30178570E-03    8.37981011E-17
 -1.30028569E-03    1.06194598E-16
 -1.29878568E-03    1.30212046E-16
 -1.29728566E-03    1.55810837E-16
 -1.29578577E-03    1.82932687E-16
 -1.29428576E-03    2.11499256E-16
 -1.29278575E-03    2.41410849E-16
 -1.29128573E-03    2.72545186E-16
 -1.28978572E-03    3.04756181E-16
 -1.28828571E-03    3.37872972E-16
 -1.28678570E-03    3.71698942E-16
 -1.28528569E-03    4.06010976E-16
 -1.28378568E-03    4.40558750E-16
 -1.28228567E-03    4.75064411E-16
 -1.28078577E-03    5.09222285E-16
 -1.27928576E-03    5.42698880E-16
 -1.27778575E-03    5.75133095E-16
 -1.27628574E-03    6.06136777E-16
 -1.27478573E-03    6.35295463E-16
 -1.27328571E-03    6.62169489E-16
 -1.27178570E-03    6.86295369E-16
 -1.27028569E-03    7.07187543E-16
 -1.26878568E-03    7.24340490E-16
 -1.26728567E-03    7.37231060E-16
 -1.26578566E-03    7.45321390E-16
 -1.26428576E-03    7.48062018E-16
 -1.26278575E-03    7.44895438E-16
 -1.26128574E-03    7.35260068E-16
 -1.25978573E-03    7.18594536E-16
 -1.25828572E-03    6.94342288E-16
 -1.25678570E-03    6.61956778E-16
 -1.25528569E-03    6.20906755E-16
 -1.25378568E-03    5.70682043E-16
 -1.25228567E-03    5.10799619E-16
 -1.25078566E-03    4.40809816E-16
 -1.24928576E-03    3.60303119E-16
 -1.24778575E-03    2.68916920E-16
 -1.24628574E-03    1.66342501E-16
 -1.24478573E-03    5.23322829E-17
 -1.24328572E-03   -7.32928676E-17
 -1.24178571E-03   -2.10636355E-16
 -1.24028570E-03   -3.59718428E-16
 -1.23878568E-03   -5.20468924E-16
 -1.23728567E-03   -6.92720114E-16
 -1.23578566E-03   -8.76199627E-16
 -1.23428577E-03   -1.07052376E-15
 -1.23278575E-03   -1.27519095E-15
 -1.23128574E-03   -1.48957584E-15
 -1.22978573E-03   -1.71292371E-15
 -1.22828572E-03   -1.94434550E-15
 -1.22678571E-03   -2.18281343E-15
 -1.22528570E-03   -2.42715703E-15
 -1.22378569E-03   -2.67606084E-15
 -1.22228567E-03   -2.92806203E-15
 -1.22078566E-03   -3.18154956E-15
 -1.21928577E-03   -3.43476392E-15
 -1.21778576E-03   -3.68579865E-15
 -1.21628575E-03   -3.93260203E-15
 -1.21478573E-03   -4.17298151E-15
 -1.21328572E-03   -4.40460775E-15
 -1.21178571E-03   -4.62502139E-15
 -1.21028570E-03   -4.83164026E-15
 -1.20878569E-03   -5.02176951E-15
 -1.20728568E-03   -5.19261097E-15
 -1.20578567E-03   -5.34127669E-15
 -1.20428577E-03   -5.46480204E-15
 -1.20278576E-03   -5.56016101E-15
 -1.20128575E-03   -5.62428352E-15
 -1.19978574E-03   -5.65407410E-15
 -1.19828572E-03   -5.64643174E-15
 -1.19678571E-03   -5.59827199E-15
 -1.19528570E-03   -5.50655018E-15
 -1.19378569E-03   -5.36828476E-15
 -1.19228568E-03   -5.18058480E-15
 -1.19078567E-03   -4.94067669E-15
 -1.18928566E-03   -4.64593252E-15
 -1.18778576E-03   -4.29389885E-15
 -1.18628575E-03   -3.88232808E-15
 -1.18478574E-03   -3.40920851E-15
 -1.18328573E-03   -2.87279716E-15
 -1.18178572E-03   -2.27165088E-15
 -1.18028570E-03   -1.60465924E-15
 -1.17878569E-03   -8.71076824E-16
 -1.17728568E-03   -7.05551049E-17
 -1.17578567E-03    7.96825440E-16
 -1.17428566E-03    1.73052442E-15
 -1.17278576E-03    2.72951137E-15
 -1.17128575E-03    3.79223639E-15
 -1.16978574E-03    4.91660359E-15
 -1.16828573E-03    6.09994419E-15
 -1.16678572E-03    7.33899330E-15
 -1.16528571E-03    8.62986982E-15
 -1.16378570E-03    9.96805567E-15
 -1.16228568E-03    1.13483814E-14
 -1.16078567E-03    1.27650127E-14
 -1.15928566E-03    1.42114426E-14
 -1.15778577E-03    1.56804840E-14
 -1.15628575E-03    1.71642739E-14
 -1.15478574E-03    1.86542710E-14
 -1.15328573E-03    2.01412661E-14
 -1.15178572E-03    2.16153965E-14
 -1.15028571E-03    2.30661624E-14
 -1.14878570E-03    2.44824506E-14
 -1.14728569E-03    2.58525653E-14
 -1.14578567E-03    2.71642636E-14
 -1.14428566E-03    2.84047925E-14
 -1.14278577E-03    2.95609416E-14
 -1.14128576E-03    3.06190925E-14
 -1.13978575E-03    3.15652757E-14
 -1.13828573E-03    3.23852443E-14
 -1.13678572E-03    3.30645376E-14
 -1.13528571E-03    3.35885664E-14
 -1.13378570E-03    3.39426871E-14
 -1.13228569E-03    3.41123038E-14
 -1.13078568E-03    3.40829558E-14
 -1.12928567E-03    3.38404198E-14
 -1.12778577E-03    3.33708145E-14
 -1.12628576E-03    3.26607163E-14
 -1.12478575E-03    3.16972705E-14
 -1.12328574E-03    3.04683070E-14
 -1.12178572E-03    2.89624722E-14
 -1.12028571E-03    2.71693441E-14
 -1.11878570E-03    2.50795648E-14
 -1.11728569E-03    2.26849687E-14
 -1.11578568E-03    1.99787120E-14
 -1.11428567E-03    1.69553990E-14
 -1.11278577E-03    1.36112155E-14
 -1.11128576E-03    9.94405076E-15
 -1.10978575E-03    5.95362433E-15
 -1.10828574E-03    1.64160501E-15
 -1.10678573E-03   -2.98827210E-15
 -1.10528572E-03   -7.93009609E-15
 -1.10378570E-03   -1.31756771E-14
 -1.10228569E-03   -1.87144510E-14
 -1.10078568E-03   -2.45333894E-14
 -1.09928567E-03   -3.06169275E-14
 -1.09778566E-03   -3.69468928E-14
 -1.09628576E-03   -4.35024568E-14
 -1.09478575E-03   -5.02600857E-14
 -1.09328574E-03   -5.71935213E-14
 -1.09178573E-03   -6.42737748E-14
 -1.09028572E-03   -7.14691097E-14
 -1.08878571E-03   -7.87450820E-14
 -1.08728569E-03   -8.60645783E-14
 -1.08578568E-03   -9.33878693E-14
 -1.08428567E-03   -1.00672678E-13
 -1.08278566E-03   -1.07874294E-13
 -1.08128577E-03   -1.14945678E-13
 -1.07978575E-03   -1.21837612E-13
 -1.07828574E-03   -1.28498855E-13
 -1.07678573E-03   -1.34876309E-13
 -1.07528572E-03   -1.40915247E-13
 -1.07378571E-03   -1.46559509E-13
 -1.07228570E-03   -1.51751780E-13
 -1.07078569E-03   -1.56433826E-13
 -1.06928567E-03   -1.60546801E-13
 -1.06778566E-03   -1.64031549E-13
 -1.06628577E-03   -1.66828912E-13
 -1.06478576E-03   -1.68880114E-13
 -1.06328574E-03   -1.70127055E-13
 -1.06178573E-03   -1.70512760E-13
 -1.06028572E-03   -1.69981718E-13
 -1.05878571E-03   -1.68480288E-13
 -1.05728570E-03   -1.65957146E-13
 -1.05578569E-03   -1.62363680E-13
 -1.05428568E-03   -1.57654407E-13
 -1.05278566E-03   -1.51787423E-13
 -1.05128577E-03   -1.44724822E-13
 -1.04978576E-03   -1.36433169E-13
 -1.04828575E-03   -1.26883869E-13
 -1.04678574E-03   -1.16053638E-13
 -1.04528572E-03   -1.03924912E-13
 -1.04378571E-03   -9.04862326E-14
 -1.04228570E-03   -7.57326602E-14
 -1.04078569E-03   -5.96661257E-14
 -1.03928568E-03   -4.22958143E-14
 -1.03778567E-03   -2.36384652E-14
 -1.03628577E-03   -3.71869444E-15
 -1.03478576E-03    1.74307336E-14
 -1.03328575E-03    3.97686610E-14
 -1.03178574E-03    6.32453278E-14
 -1.03028573E-03    8.78021953E-14
 -1.02878571E-03    1.13371823E-13
 -1.02728570E-03    1.39877761E-13
 -1.02578569E-03    1.67234526E-13
 -1.02428568E-03    1.95347577E-13
 -1.02278567E-03    2.24113371E-13
 -1.02128566E-03    2.53419491E-13
 -1.01978576E-03    2.83144737E-13
 -1.01828575E-03    3.13159383E-13
 -1.01678574E-03    3.43325412E-13
 -1.01528573E-03    3.73496806E-13
 -1.01378572E-03    4.03519964E-13
 -1.01228571E-03    4.33234096E-13
 -1.01078569E-03    4.62471695E-13
 -1.00928568E-03    4.91059016E-13
 -1.00778567E-03    5.18816815E-13
 -1.00628566E-03    5.45560830E-13
 -1.00478576E-03    5.71102573E-13
 -1.00328575E-03    5.95249978E-13
 -1.00178574E-03    6.17808322E-13
 -1.00028573E-03    6.38580931E-13
 -9.98785719E-04    6.57370100E-13
 -9.97285708E-04    6.73978072E-13
 -9.95785696E-04    6.88207954E-13
 -9.94285685E-04    6.99864645E-13
 -9.92785674E-04    7.08755971E-13
 -9.91285662E-04    7.14693712E-13
 -9.89785767E-04    7.17494586E-13
 -9.88285756E-04    7.16981433E-13
 -9.86785744E-04    7.12984359E-13
 -9.85285733E-04    7.05341710E-13
 -9.83785721E-04    6.93901262E-13
 -9.82285710E-04    6.78521529E-13
 -9.80785699E-04    6.59072569E-13
 -9.79285687E-04    6.35437287E-13
 -9.77785676E-04    6.07512575E-13
 -9.76285723E-04    5.75210290E-13
 -9.74785711E-04    5.38458384E-13
 -9.73285700E-04    4.97201835E-13
 -9.71785688E-04    4.51403726E-13
 -9.70285735E-04    4.01046221E-13
 -9.68785724E-04    3.46131435E-13
 -9.67285712E-04    2.86682326E-13
 -9.65785701E-04    2.22743482E-13
 -9.64285689E-04    1.54381919E-13
 -9.62785736E-04    8.16877355E-14
 -9.61285725E-04    4.77475776E-15
 -9.59785713E-04   -7.62189045E-14
 -9.58285702E-04   -1.61130386E-13
 -9.56785691E-04   -2.49771666E-13
 -9.55285737E-04   -3.41929257E-13
 -9.53785726E-04   -4.37364012E-13
 -9.52285714E-04   -5.35810925E-13
 -9.50785703E-04   -6.36979130E-13
 -9.49285692E-04   -7.40551988E-13
 -9.47785738E-04   -8.46187270E-13
 -9.46285727E-04   -9.53517430E-13
 -9.44785716E-04   -1.06214983E-12
 -9.43285704E-04   -1.17166758E-12
 -9.41785693E-04   -1.28162986E-12
 -9.40285739E-04   -1.39157284E-12
 -9.38785728E-04   -1.50101047E-12
 -9.37285717E-04   -1.60943546E-12
 -9.35785705E-04   -1.71632045E-12
 -9.34285694E-04   -1.82111921E-12
 -9.32785741E-04   -1.92326819E-12
 -9.31285729E-04   -2.02218776E-12
 -9.29785718E-04   -2.11728400E-12
 -9.28285706E-04   -2.20795062E-12
 -9.26785695E-04   -2.29357072E-12
 -9.25285742E-04   -2.37351892E-12
 -9.23785730E-04   -2.44716378E-12
 -9.22285719E-04   -2.51386954E-12
 -9.20785707E-04   -2.57299932E-12
 -9.19285696E-04   -2.62391714E-12
 -9.17785743E-04   -2.66599091E-12
 -9.16285731E-04   -2.69859547E-12
 -9.14785720E-04   -2.72111543E-12
 -9.13285709E-04   -2.73294798E-12
 -9.11785697E-04   -2.73350656E-12
 -9.10285686E-04   -2.72222414E-12
 -9.08785732E-04   -2.69855601E-12
 -9.07285721E-04   -2.66198435E-12
 -9.05785710E-04   -2.61202106E-12
 -9.04285698E-04   -2.54821142E-12
 -9.02785687E-04   -2.47013803E-12
 -9.01285734E-04   -2.37742465E-12
 -8.99785722E-04   -2.26973952E-12
 -8.98285711E-04   -2.14679967E-12
 -8.96785699E-04   -2.00837437E-12
 -8.95285688E-04   -1.85428886E-12
 -8.93785735E-04   -1.68442810E-12
 -8.92285723E-04   -1.49874048E-12
 -8.90785712E-04   -1.29724129E-12
 -8.89285700E-04   -1.08001596E-12
 -8.87785689E-04   -8.47223550E-13
 -8.86285736E-04   -5.99099817E-13
 -8.84785724E-04   -3.35960074E-13
 -8.83285713E-04   -5.82018564E-14
 -8.81785701E-04    2.33692541E-13
 -8.80285690E-04    5.39154008E-13
 -8.78785737E-04    8.57524609E-13
 -8.77285725E-04    1.18805616E-12
 -8.75785714E-04    1.52990890E-12
 -8.74285703E-04    1.88215090E-12
 -8.72785691E-04    2.24375770E-12
 -8.71285738E-04    2.61361202E-12
 -8.69785727E-04    2.99050455E-12
 -8.68285715E-04    3.37313510E-12
 -8.66785704E-04    3.76011375E-12
 -8.65285692E-04    4.14996293E-12
 -8.63785739E-04    4.54112052E-12
 -8.62285728E-04    4.93194244E-12
 -8.60785716E-04    5.32070698E-12
 -8.59285705E-04    5.70561827E-12
 -8.57785693E-04    6.08481147E-12
 -8.56285740E-04    6.45635932E-12
 -8.54785729E-04    6.81827685E-12
 -8.53285717E-04    7.16852836E-12
 -8.51785706E-04    7.50503566E-12
 -8.50285694E-04    7.82568541E-12
 -8.48785741E-04    8.12833655E-12
 -8.47285730E-04    8.41083019E-12
 -8.45785718E-04    8.67099881E-12
 -8.44285707E-04    8.90667748E-12
 -8.42785696E-04    9.11571253E-12
 -8.41285742E-04    9.29597285E-12
 -8.39785731E-04    9.44536116E-12
 -8.38285720E-04    9.56182529E-12
 -8.36785708E-04    9.64337030E-12
 -8.35285697E-04    9.68806979E-12
 -8.33785685E-04    9.69407974E-12
 -8.32285732E-04    9.65964895E-12
 -8.30785721E-04    9.58313116E-12
 -8.29285709E-04    9.46299896E-12
 -8.27785698E-04    9.29785415E-12
 -8.26285686E-04    9.08644080E-12
 -8.24785733E-04    8.82765649E-12
 -8.23285722E-04    8.52056273E-12
 -8.21785710E-04    8.16439711E-12
 -8.20285699E-04    7.75858371E-12
 -8.18785687E-04    7.30274261E-12
 -8.17285734E-04    6.79669905E-12
 -8.15785723E-04    6.24049206E-12
 -8.14285711E-04    5.63438228E-12
 -8.12785700E-04    4.97885891E-12
 -8.11285689E-04    4.27464574E-12
 -8.09785735E-04    3.52270622E-12
 -8.08285724E-04    2.72424769E-12
 -8.06785712E-04    1.88072388E-12
 -8.05285701E-04    9.93837608E-13
 -8.03785690E-04    6.55410039E-14
 -8.02285736E-04   -9.01964809E-13
 -8.00785725E-04   -1.90623125E-12
 -7.99285714E-04   -2.94456538E-12
 -7.97785702E-04   -4.01403346E-12
 -7.96285691E-04   -5.11146724E-12
 -7.94785738E-04   -6.23346904E-12
 -7.93285726E-04   -7.37642152E-12
 -7.91785715E-04   -8.53649356E-12
 -7.90285703E-04   -9.70965409E-12
 -7.88785692E-04   -1.08916817E-11
 -7.87285739E-04   -1.20781753E-11
 -7.85785727E-04   -1.32645709E-11
 -7.84285716E-04   -1.44461535E-11
 -7.82785704E-04   -1.56180745E-11
 -7.81285693E-04   -1.67753658E-11
 -7.79785740E-04   -1.79129576E-11
 -7.78285728E-04   -1.90256977E-11
 -7.76785717E-04   -2.01083681E-11
 -7.75285705E-04   -2.11557039E-11
 -7.73785694E-04   -2.21624160E-11
 -7.72285741E-04   -2.31232082E-11
 -7.70785729E-04   -2.40327949E-11
 -7.69285718E-04   -2.48859267E-11
 -7.67785707E-04   -2.56774099E-11
 -7.66285695E-04   -2.64021218E-11
 -7.64785742E-04   -2.70550388E-11
 -7.63285730E-04   -2.76312532E-11
 -7.61785719E-04   -2.81259911E-11
 -7.60285708E-04   -2.85346347E-11
 -7.58785696E-04   -2.88527431E-11
 -7.57285743E-04   -2.90760697E-11
 -7.55785732E-04   -2.92005829E-11
 -7.54285720E-04   -2.92224751E-11
 -7.52785709E-04   -2.91381988E-11
 -7.51285697E-04   -2.89444614E-11
 -7.49785686E-04   -2.86382602E-11
 -7.48285733E-04   -2.82168837E-11
 -7.46785721E-04   -2.76779381E-11
 -7.45285710E-04   -2.70193503E-11
 -7.43785698E-04   -2.62393909E-11
 -7.42285687E-04   -2.53366824E-11
 -7.40785734E-04   -2.43102084E-11
 -7.39285722E-04   -2.31593286E-11
 -7.37785711E-04   -2.18837899E-11
 -7.36285700E-04   -2.04837328E-11
 -7.34785688E-04   -1.89597019E-11
 -7.33285735E-04   -1.73126548E-11
 -7.31785723E-04   -1.55439689E-11
 -7.30285712E-04   -1.36554474E-11
 -7.28785701E-04   -1.16493282E-11
 -7.27285689E-04   -9.52828701E-12
 -7.25785736E-04   -7.29544463E-12
 -7.24285725E-04   -4.95437025E-12
 -7.22785713E-04   -2.50908560E-12
 -7.21285702E-04    3.59316391E-14
 -7.19785690E-04    2.67574504E-12
 -7.18285737E-04    5.40495730E-12
 -7.16785726E-04    8.21770863E-12
 -7.15285714E-04    1.11076773E-11
 -7.13785703E-04    1.40680774E-11
 -7.12285691E-04    1.70916632E-11
 -7.10785738E-04    2.01707245E-11
 -7.09285727E-04    2.32970986E-11
 -7.07785715E-04    2.64621658E-11
 -7.06285704E-04    2.96568603E-11
 -7.04785693E-04    3.28716707E-11
 -7.03285739E-04    3.60966534E-11
 -7.01785728E-04    3.93214385E-11
 -7.00285716E-04    4.25352392E-11
 -6.98785705E-04    4.57268737E-11
 -6.97285694E-04    4.88847643E-11
 -6.95785740E-04    5.19969727E-11
 -6.94285729E-04    5.50512032E-11
 -6.92785718E-04    5.80348339E-11
 -6.91285706E-04    6.09349377E-11
 -6.89785695E-04    6.37383063E-11
 -6.88285741E-04    6.64314923E-11
 -6.86785730E-04    6.90008259E-11
 -6.85285719E-04    7.14324572E-11
 -6.83785707E-04    7.37123973E-11
 -6.82285696E-04    7.58265672E-11
 -6.80785743E-04    7.77608325E-11
 -6.79285731E-04    7.95010516E-11
 -6.77785720E-04    8.10331455E-11
 -6.76285708E-04    8.23431323E-11
 -6.74785697E-04    8.34171968E-11
 -6.73285685E-04    8.42417594E-11
 -6.71785732E-04    8.48035323E-11
 -6.70285721E-04    8.50895951E-11
 -6.68785709E-04    8.50874579E-11
 -6.67285698E-04    8.47851372E-11
 -6.65785687E-04    8.41712533E-11
 -6.64285733E-04    8.32350786E-11
 -6.62785722E-04    8.19666279E-11
 -6.61285711E-04    8.03567560E-11
 -6.59785699E-04    7.83972123E-11
 -6.58285688E-04    7.60807528E-11
 -6.56785734E-04    7.34012018E-11
 -6.55285723E-04    7.03535355E-11
 -6.53785712E-04    6.69339723E-11
 -6.52285700E-04    6.31400418E-11
 -6.50785689E-04    5.89706756E-11
 -6.49285736E-04    5.44262621E-11
 -6.47785724E-04    4.95087304E-11
 -6.46285713E-04    4.42216055E-11
 -6.44785701E-04    3.85700742E-11
 -6.43285690E-04    3.25610407E-11
 -6.41785737E-04    2.62031733E-11
 -6.40285725E-04    1.95069412E-11
 -6.38785714E-04    1.24846531E-11
 -6.37285702E-04    5.15048290E-12
 -6.35785691E-04   -2.47951768E-12
 -6.34285738E-04   -1.03874105E-11
 -6.32785726E-04   -1.85533724E-11
 -6.31285715E-04   -2.69557102E-11
 -6.29785703E-04   -3.55708830E-11
 -6.28285692E-04   -4.43735396E-11
 -6.26785739E-04   -5.33365643E-11
 -6.25285727E-04   -6.24311297E-11
 -6.23785716E-04   -7.16267670E-11
 -6.22285705E-04   -8.08914533E-11
 -6.20785693E-04   -9.01917013E-11
 -6.19285740E-04   -9.94926572E-11
 -6.17785729E-04   -1.08758232E-10
 -6.16285717E-04   -1.17951204E-10
 -6.14785706E-04   -1.27033370E-10
 -6.13285694E-04   -1.35965697E-10
 -6.11785741E-04   -1.44708467E-10
 -6.10285730E-04   -1.53221449E-10
 -6.08785718E-04   -1.61464078E-10
 -6.07285707E-04   -1.69395609E-10
 -6.05785695E-04   -1.76975337E-10
 -6.04285742E-04   -1.84162768E-10
 -6.02785731E-04   -1.90917823E-10
 -6.01285719E-04   -1.97201033E-10
 -5.99785708E-04   -2.02973735E-10
 -5.98285696E-04   -2.08198292E-10
 -5.96785743E-04   -2.12838289E-10
 -5.95285732E-04   -2.16858725E-10
 -5.93785720E-04   -2.20226198E-10
 -5.92285709E-04   -2.22909136E-10
 -5.90785698E-04   -2.24877936E-10
 -5.89285686E-04   -2.26105176E-10
 -5.87785733E-04   -2.26565794E-10
 -5.86285722E-04   -2.26237210E-10
 -5.84785710E-04   -2.25099522E-10
 -5.83285699E-04   -2.23135607E-10
 -5.81785687E-04   -2.20331281E-10
 -5.80285734E-04   -2.16675400E-10
 -5.78785723E-04   -2.12159942E-10
 -5.77285711E-04   -2.06780135E-10
 -5.75785700E-04   -2.00534478E-10
 -5.74285688E-04   -1.93424818E-10
 -5.72785735E-04   -1.85456386E-10
 -5.71285724E-04   -1.76637788E-10
 -5.69785712E-04   -1.66981054E-10
 -5.68285701E-04   -1.56501589E-10
 -5.66785689E-04   -1.45218129E-10
 -5.65285736E-04   -1.33152711E-10
 -5.63785725E-04   -1.20330607E-10
 -5.62285713E-04   -1.06780217E-10
 -5.60785702E-04   -9.25330090E-11
 -5.59285691E-04   -7.76233661E-11
 -5.57785737E-04   -6.20884871E-11
 -5.56285726E-04   -4.59682258E-11
 -5.54785714E-04   -2.93049578E-11
 -5.53285703E-04   -1.21434035E-11
 -5.51785692E-04    5.46953151E-12
 -5.50285738E-04    2.34849432E-11
 -5.48785727E-04    4.18521121E-11
 -5.47285716E-04    6.05186873E-11
 -5.45785704E-04    7.94308994E-11
 -5.44285693E-04    9.85337367E-11
 -5.42785740E-04    1.17771140E-10
 -5.41285728E-04    1.37086231E-10
 -5.39785717E-04    1.56421459E-10
 -5.38285705E-04    1.75718828E-10
 -5.36785694E-04    1.94920052E-10
 -5.35285741E-04    2.13966775E-10
 -5.33785729E-04    2.32800709E-10
 -5.32285718E-04    2.51363791E-10
 -5.30785706E-04    2.69598371E-10
 -5.29285695E-04    2.87447316E-10
 -5.27785742E-04    3.04854197E-10
 -5.26285730E-04    3.21763366E-10
 -5.24785719E-04    3.38120060E-10
 -5.23285707E-04    3.53870544E-10
 -5.21785696E-04    3.68962194E-10
 -5.20285743E-04    3.83343551E-10
 -5.18785731E-04    3.96964378E-10
 -5.17285720E-04    4.09775741E-10
 -5.15785709E-04    4.21730095E-10
 -5.14285697E-04    4.32781228E-10
 -5.12785686E-04    4.42884340E-10
 -5.11285733E-04    4.51996107E-10
 -5.09785721E-04    4.60074673E-10
 -5.08285710E-04    4.67079597E-10
 -5.06785698E-04    4.72971995E-10
 -5.05285687E-04    4.77714479E-10
 -5.03785734E-04    4.81271134E-10
 -5.02285722E-04    4.83607598E-10
 -5.00785711E-04    4.84691065E-10
 -4.99285699E-04    4.84490281E-10
 -4.97785688E-04    4.82975604E-10
 -4.96285735E-04    4.80119056E-10
 -4.94785723E-04    4.75894435E-10
 -4.93285712E-04    4.70277151E-10
 -4.91785700E-04    4.63244582E-10
 -4.90285689E-04    4.54775995E-10
 -4.88785736E-04    4.44852710E-10
 -4.87285724E-04    4.33458186E-10
 -4.85785713E-04    4.20578183E-10
 -4.84285702E-04    4.06200934E-10
 -4.82785719E-04    3.90317251E-10
 -4.81285708E-04    3.72920778E-10
 -4.79785725E-04    3.54008184E-10
 -4.78285714E-04    3.33579303E-10
 -4.76785703E-04    3.11637466E-10
 -4.75285720E-04    2.88189694E-10
 -4.73785709E-04    2.63246924E-10
 -4.72285727E-04    2.36824310E-10
 -4.70785715E-04    2.08941489E-10
 -4.69285704E-04    1.79622830E-10
 -4.67785721E-04    1.48897700E-10
 -4.66285710E-04    1.16800777E-10
 -4.64785728E-04    8.33722605E-11
 -4.63285716E-04    4.86581678E-11
 -4.61785705E-04    1.27105687E-11
 -4.60285723E-04   -2.44121875E-11
 -4.58785711E-04   -6.26452640E-11
 -4.57285729E-04   -1.01917141E-10
 -4.55785717E-04   -1.42149473E-10
 -4.54285706E-04   -1.83256924E-10
 -4.52785724E-04   -2.25147095E-10
 -4.51285712E-04   -2.67720485E-10
 -4.49785701E-04   -3.10870413E-10
 -4.48285718E-04   -3.54483110E-10
 -4.46785707E-04   -3.98437727E-10
 -4.45285725E-04   -4.42606563E-10
 -4.43785713E-04   -4.86855112E-10
 -4.42285702E-04   -5.31042377E-10
 -4.40785720E-04   -5.75021142E-10
 -4.39285708E-04   -6.18638252E-10
 -4.37785726E-04   -6.61735222E-10
 -4.36285714E-04   -7.04148406E-10
 -4.34785703E-04   -7.45709716E-10
 -4.33285721E-04   -7.86247234E-10
 -4.31785709E-04   -8.25585600E-10
 -4.30285727E-04   -8.63547012E-10