 -1.71428570E-03     0.0000000    
 -1.71278568E-03     0.0000000    
 -1.71128567E-03     0.0000000    
 -1.70978566E-03     0.0000000    
 -1.70828577E-03     0.0000000    
 -1.70678576E-03     0.0000000    
 -1.70528574E-03     0.0000000    
 -1.70378573E-03     0.0000000    
 -1.70228572E-03     0.0000000    
 -1.70078571E-03     0.0000000    
 -1.69928570E-03     0.0000000    
 -1.69778569E-03     0.0000000    
 -1.69628568E-03     0.0000000    
 -1.69478566E-03     0.0000000    
 -1.69328577E-03     0.0000000    
 -1.69178576E-03     0.0000000    
 -1.69028575E-03     0.0000000    
 -1.68878573E-03     0.0000000    
 -1.68728572E-03     0.0000000    
 -1.68578571E-03    1.78817931E-38
 -1.68428570E-03    7.68947622E-38
 -1.68278569E-03    2.58187067E-37
 -1.68128568E-03    7.80927267E-37
 -1.67978567E-03    2.20534747E-36
 -1.67828577E-03    5.89525627E-36
 -1.67678576E-03    1.50278975E-35
 -1.67528575E-03    3.67169248E-35
 -1.67378574E-03    8.63238454E-35
 -1.67228573E-03    1.95942074E-34
 -1.67078571E-03    4.30615448E-34
 -1.66928570E-03    9.18525959E-34
 -1.66778569E-03    1.90581154E-33
 -1.66628568E-03    3.85385272E-33
 -1.66478567E-03    7.60827625E-33
 -1.66328566E-03    1.46867454E-32
 -1.66178576E-03    2.77599162E-32
 -1.66028575E-03    5.14412197E-32
 -1.65878574E-03    9.35624032E-32
 -1.65728573E-03    1.67201670E-31
 -1.65578572E-03    2.93860869E-31
 -1.65428570E-03    5.08373424E-31
 -1.65278569E-03    8.66385040E-31
 -1.65128568E-03    1.45561183E-30
 -1.64978567E-03    2.41257821E-30
 -1.64828566E-03    3.94721637E-30
 -1.64678576E-03    6.37861753E-30
 -1.64528575E-03    1.01864421E-29
 -1.64378574E-03    1.60840940E-29
 -1.64228573E-03    2.51218437E-29
 -1.64078572E-03    3.88308072E-29
 -1.63928571E-03    5.94220948E-29
 -1.63778570E-03    9.00598726E-29
 -1.63628568E-03    1.35232541E-28
 -1.63478567E-03    2.01253095E-28
 -1.63328566E-03    2.96928251E-28
 -1.63178577E-03    4.34446077E-28
 -1.63028575E-03    6.30544745E-28
 -1.62878574E-03    9.08039472E-28
 -1.62728573E-03    1.29780311E-27
 -1.62578572E-03    1.84131729E-27
 -1.62428571E-03    2.59393316E-27
 -1.62278570E-03    3.62901400E-27
 -1.62128569E-03    5.04315695E-27
 -1.61978567E-03    6.96273518E-27
 -1.61828566E-03    9.55203629E-27
 -1.61678577E-03    1.30233186E-26
 -1.61528576E-03    1.76491588E-26
 -1.61378575E-03    2.37775049E-26
 -1.61228573E-03    3.18499047E-26
 -1.61078572E-03    4.24234419E-26
 -1.60928571E-03    5.61969348E-26
 -1.60778570E-03    7.40420223E-26
 -1.60628569E-03    9.70397891E-26
 -1.60478568E-03    1.26523576E-25
 -1.60328567E-03    1.64128687E-25
 -1.60178577E-03    2.11849558E-25
 -1.60028576E-03    2.72105145E-25
 -1.59878575E-03    3.47812717E-25
 -1.59728574E-03    4.42470800E-25
 -1.59578572E-03    5.60250987E-25
 -1.59428571E-03    7.06098697E-25
 -1.59278570E-03    8.85842183E-25
 -1.59128569E-03    1.10630879E-24
 -1.58978568E-03    1.37544653E-24
 -1.58828567E-03    1.70244900E-24
 -1.58678566E-03    2.09787953E-24
 -1.58528576E-03    2.57379084E-24
 -1.58378575E-03    3.14383317E-24
 -1.58228574E-03    3.82334493E-24
 -1.58078573E-03    4.62941484E-24
 -1.57928572E-03    5.58090613E-24
 -1.57778570E-03    6.69842778E-24
 -1.57628569E-03    8.00423871E-24
 -1.57478568E-03    9.52205915E-24
 -1.57328567E-03    1.12767808E-23
 -1.57178566E-03    1.32940323E-23
 -1.57028576E-03    1.55995871E-23
 -1.56878575E-03    1.82185691E-23
 -1.56728574E-03    2.11744261E-23
 -1.56578573E-03    2.44876293E-23
 -1.56428572E-03    2.81740536E-23
 -1.56278571E-03    3.22429793E-23
 -1.56128570E-03    3.66946917E-23
 -1.55978568E-03    4.15175917E-23
 -1.55828567E-03    4.66847884E-23
 -1.55678566E-03    5.21500861E-23
 -1.55528577E-03    5.78433395E-23
 -1.55378575E-03    6.36651014E-23
 -1.55228574E-03    6.94804956E-23
 -1.55078573E-03    7.51123251E-23
 -1.54928572E-03    8.03332716E-23
 -1.54778571E-03    8.48572943E-23
 -1.54628570E-03    8.83300619E-23
 -1.54478569E-03    9.03185531E-23
 -1.54328567E-03    9.02997592E-23
 -1.54178566E-03    8.76485808E-23
 -1.54028577E-03    8.16249903E-23
 -1.53878576E-03    7.13605973E-23
 -1.53728575E-03    5.58447572E-23
 -1.53578573E-03    3.39104387E-23
 -1.53428572E-03    4.22014473E-24
 -1.53278571E-03   -3.47478051E-23
 -1.53128570E-03   -8.47122196E-23
 -1.52978569E-03   -1.47600722E-22
 -1.52828568E-03   -2.25559642E-22
 -1.52678567E-03   -3.20961401E-22
 -1.52528577E-03   -4.36408758E-22
 -1.52378576E-03   -5.74734924E-22
 -1.52228575E-03   -7.38998838E-22
 -1.52078574E-03   -9.32474182E-22
 -1.51928572E-03   -1.15863144E-21
 -1.51778571E-03   -1.42111124E-21
 -1.51628570E-03   -1.72368809E-21
 -1.51478569E-03   -2.07022325E-21
 -1.51328568E-03   -2.46460382E-21
 -1.51178567E-03   -2.91066904E-21
 -1.51028577E-03   -3.41211882E-21
 -1.50878576E-03   -3.97240686E-21
 -1.50728575E-03   -4.59461268E-21
 -1.50578574E-03   -5.28129295E-21
 -1.50428573E-03   -6.03431286E-21
 -1.50278572E-03   -6.85465025E-21
 -1.50128570E-03   -7.74217789E-21
 -1.49978569E-03   -8.69541711E-21
 -1.49828568E-03   -9.71126841E-21
 -1.49678567E-03   -1.07847105E-20
 -1.49528566E-03   -1.19084766E-20
 -1.49378576E-03   -1.30727026E-20
 -1.49228575E-03   -1.42645487E-20
 -1.49078574E-03   -1.54678025E-20
 -1.48928573E-03   -1.66624548E-20
 -1.48778572E-03   -1.78242656E-20
 -1.48628571E-03   -1.89243140E-20
 -1.48478569E-03   -1.99285403E-20
 -1.48328568E-03   -2.07972916E-20
 -1.48178567E-03   -2.14848677E-20
 -1.48028566E-03   -2.19390949E-20
 -1.47878577E-03   -2.21009218E-20
 -1.47728575E-03   -2.19040512E-20
 -1.47578574E-03   -2.12746330E-20
 -1.47428573E-03   -2.01310203E-20
 -1.47278572E-03   -1.83836141E-20
 -1.47128571E-03   -1.59348073E-20
 -1.46978570E-03   -1.26790559E-20
 -1.46828569E-03   -8.50309035E-21
 -1.46678567E-03   -3.28629527E-21
 -1.46528566E-03    3.09872339E-21
 -1.46378577E-03    1.07853568E-20
 -1.46228576E-03    1.99119741E-20
 -1.46078574E-03    3.06206430E-20
 -1.45928573E-03    4.30555587E-20
 -1.45778572E-03    5.73611562E-20
 -1.45628571E-03    7.36798981E-20
 -1.45478570E-03    9.21496909E-20
 -1.45328569E-03    1.12900938E-19
 -1.45178568E-03    1.36053155E-19
 -1.45028566E-03    1.61711225E-19
 -1.44878577E-03    1.89961213E-19
 -1.44728576E-03    2.20865702E-19
 -1.44578575E-03    2.54458799E-19
 -1.44428574E-03    2.90740621E-19
 -1.44278572E-03    3.29671386E-19
 -1.44128571E-03    3.71165169E-19
 -1.43978570E-03    4.15083212E-19
 -1.43828569E-03    4.61227017E-19
 -1.43678568E-03    5.09331086E-19
 -1.43528567E-03    5.59055445E-19
 -1.43378577E-03    6.09978080E-19
 -1.43228576E-03    6.61587274E-19
 -1.43078575E-03    7.13274120E-19
 -1.42928574E-03    7.64325019E-19
 -1.42778573E-03    8.13914497E-19
 -1.42628571E-03    8.61098740E-19
 -1.42478570E-03    9.04809342E-19
 -1.42328569E-03    9.43847924E-19
 -1.42178568E-03    9.76882105E-19
 -1.42028567E-03    1.00244199E-18
 -1.41878566E-03    1.01891849E-18
 -1.41728576E-03    1.02456297E-18
 -1.41578575E-03    1.01748913E-18
 -1.41428574E-03    9.95676373E-19
 -1.41278573E-03    9.56976004E-19
 -1.41128572E-03    8.99119787E-19
 -1.40978571E-03    8.19731076E-19
 -1.40828569E-03    7.16339651E-19
 -1.40678568E-03    5.86399141E-19
 -1.40528567E-03    4.27308528E-19
 -1.40378566E-03    2.36437119E-19
 -1.40228576E-03    1.11535055E-20
 -1.40078575E-03   -2.51141288E-19
 -1.39928574E-03   -5.52976443E-19
 -1.39778573E-03   -8.96769767E-19
 -1.39628572E-03   -1.28478137E-18
 -1.39478571E-03   -1.71906319E-18
 -1.39328570E-03   -2.20140430E-18
 -1.39178568E-03   -2.73327110E-18
 -1.39028567E-03   -3.31574439E-18
 -1.38878566E-03   -3.94945242E-18
 -1.38728577E-03   -4.63449900E-18
 -1.38578576E-03   -5.37039113E-18
 -1.38428574E-03   -6.15596125E-18
 -1.38278573E-03   -6.98928823E-18
 -1.38128572E-03   -7.86761755E-18
 -1.37978571E-03   -8.78728192E-18
 -1.37828570E-03   -9.74361686E-18
 -1.37678569E-03   -1.07308859E-17
 -1.37528568E-03   -1.17421994E-17
 -1.37378566E-03   -1.27694427E-17
 -1.37228577E-03   -1.38032075E-17
 -1.37078576E-03   -1.48327265E-17
 -1.36928575E-03   -1.58458209E-17
 -1.36778574E-03   -1.68288506E-17
 -1.36628572E-03   -1.77666832E-17
 -1.36478571E-03   -1.86426641E-17
 -1.36328570E-03   -1.94386137E-17
 -1.36178569E-03   -2.01348285E-17
 -1.36028568E-03   -2.07101094E-17
 -1.35878567E-03   -2.11418034E-17
 -1.35728577E-03   -2.14058676E-17
 -1.35578576E-03   -2.14769571E-17
 -1.35428575E-03   -2.13285394E-17
 -1.35278574E-03   -2.09330296E-17
 -1.35128573E-03   -2.02619562E-17
 -1.34978571E-03   -1.92861594E-17
 -1.34828570E-03   -1.79760095E-17
 -1.34678569E-03   -1.63016702E-17
 -1.34528568E-03   -1.42333795E-17
 -1.34378567E-03   -1.17417734E-17
 -1.34228566E-03   -8.79823379E-18
 -1.34078576E-03   -5.37527481E-18
 -1.33928575E-03   -1.44695799E-18
 -1.33778574E-03    3.01066198E-18
 -1.33628573E-03    8.01906192E-18
 -1.33478572E-03    1.35967474E-17
 -1.33328571E-03    1.97587227E-17
 -1.33178569E-03    2.65159429E-17
 -1.33028568E-03    3.38747401E-17
 -1.32878567E-03    4.18362377E-17
 -1.32728566E-03    5.03957538E-17
 -1.32578576E-03    5.95421943E-17
 -1.32428575E-03    6.92574504E-17
 -1.32278574E-03    7.95157936E-17
 -1.32128573E-03    9.02832831E-17
 -1.31978572E-03    1.01517203E-16
 -1.31828571E-03    1.13165494E-16
 -1.31678570E-03    1.25166257E-16
 -1.31528568E-03    1.37447255E-16
 -1.31378567E-03    1.49925520E-16
 -1.31228566E-03    1.62506963E-16
 -1.31078577E-03    1.75086064E-16
 -1.30928576E-03    1.87545681E-16
 -1.30778574E-03    1.99756892E-16
 -1.30628573E-03    2.11578944E-16
 -1.30478572E-03    2.22859345E-16
 -1.30328571E-03    2.33434022E-16
 -1.30178570E-03    2.43127626E-16
 -1.30028569E-03    2.51753968E-16
 -1.29878568E-03    2.59116617E-16
 -1.29728566E-03    2.65009610E-16
 -1.29578577E-03    2.69218279E-16
 -1.29428576E-03    2.71520408E-16
 -1.29278575E-03    2.71687353E-16
 -1.29128573E-03    2.69485491E-16
 -1.28978572E-03    2.64677679E-16
 -1.28828571E-03    2.57025133E-16
 -1.28678570E-03    2.46289229E-16
 -1.28528569E-03    2.32233644E-16
 -1.28378568E-03    2.14626608E-16
 -1.28228567E-03    1.93243394E-16
 -1.28078577E-03    1.67868841E-16
 -1.27928576E-03    1.38300204E-16
 -1.27778575E-03    1.04349986E-16
 -1.27628574E-03    6.58490295E-17
 -1.27478573E-03    2.26496726E-17
 -1.27328571E-03   -2.53709893E-17
 -1.27178570E-03   -7.83077261E-17
 -1.27028569E-03   -1.36223769E-16
 -1.26878568E-03   -1.99147346E-16
 -1.26728567E-03   -2.67068138E-16
 -1.26578566E-03   -3.39933883E-16
 -1.26428576E-03   -4.17646879E-16
 -1.26278575E-03   -5.00060618E-16
 -1.26128574E-03   -5.86976521E-16
 -1.25978573E-03   -6.78140772E-16
 -1.25828572E-03   -7.73241396E-16
 -1.25678570E-03   -8.71905487E-16
 -1.25528569E-03   -9.73696666E-16
 -1.25378568E-03   -1.07811275E-15
 -1.25228567E-03   -1.18458415E-15
 -1.25078566E-03   -1.29247222E-15
 -1.24928576E-03   -1.40106777E-15
 -1.24778575E-03   -1.50959101E-15
 -1.24628574E-03   -1.61719098E-15
 -1.24478573E-03   -1.72294601E-15
 -1.24328572E-03   -1.82586464E-15
 -1.24178571E-03   -1.92488703E-15
 -1.24028570E-03   -2.01888715E-15
 -1.23878568E-03   -2.10667618E-15
 -1.23728567E-03   -2.18700540E-15
 -1.23578566E-03   -2.25857079E-15
 -1.23428577E-03   -2.32001795E-15
 -1.23278575E-03   -2.36994821E-15
 -1.23128574E-03   -2.40692501E-15
 -1.22978573E-03   -2.42948171E-15
 -1.22828572E-03   -2.43612965E-15
 -1.22678571E-03   -2.42536746E-15
 -1.22528570E-03   -2.39569081E-15
 -1.22378569E-03   -2.34560343E-15
 -1.22228567E-03   -2.27362850E-15
 -1.22078566E-03   -2.17832098E-15
 -1.21928577E-03   -2.05828096E-15
 -1.21778576E-03   -1.91216714E-15
 -1.21628575E-03   -1.73871184E-15
 -1.21478573E-03   -1.53673545E-15
 -1.21328572E-03   -1.30516268E-15
 -1.21178571E-03   -1.04303838E-15
 -1.21028570E-03   -7.49544273E-16
 -1.20878569E-03   -4.24015800E-16
 -1.20728568E-03   -6.59592629E-17
 -1.20578567E-03    3.24930838E-16
 -1.20428577E-03    7.48754520E-16
 -1.20278576E-03    1.20538908E-15
 -1.20128575E-03    1.69447205E-15
 -1.19978574E-03    2.21538439E-15
 -1.19828572E-03    2.76723504E-15
 -1.19678571E-03    3.34884428E-15
 -1.19528570E-03    3.95872960E-15
 -1.19378569E-03    4.59509191E-15
 -1.19228568E-03    5.25580217E-15
 -1.19078567E-03    5.93839129E-15
 -1.18928566E-03    6.64003866E-15
 -1.18778576E-03    7.35756450E-15
 -1.18628575E-03    8.08742315E-15
 -1.18478574E-03    8.82569876E-15
 -1.18328573E-03    9.56810281E-15
 -1.18178572E-03    1.03099724E-14
 -1.18028570E-03    1.10462761E-14
 -1.17878569E-03    1.17716150E-14
 -1.17728568E-03    1.24802334E-14
 -1.17578567E-03    1.31660294E-14
 -1.17428566E-03    1.38225672E-14
 -1.17278576E-03    1.44430959E-14
 -1.17128575E-03    1.50205708E-14
 -1.16978574E-03    1.55476743E-14
 -1.16828573E-03    1.60168492E-14
 -1.16678572E-03    1.64203266E-14
 -1.16528571E-03    1.67501595E-14
 -1.16378570E-03    1.69982657E-14
 -1.16228568E-03    1.71564694E-14
 -1.16078567E-03    1.72165477E-14
 -1.15928566E-03    1.71702794E-14
 -1.15778577E-03    1.70095024E-14
 -1.15628575E-03    1.67261682E-14
 -1.15478574E-03    1.63124061E-14
 -1.15328573E-03    1.57605845E-14
 -1.15178572E-03    1.50633832E-14
 -1.15028571E-03    1.42138600E-14
 -1.14878570E-03    1.32055257E-14
 -1.14728569E-03    1.20324198E-14
 -1.14578567E-03    1.06891873E-14
 -1.14428566E-03    9.17115945E-15
 -1.14278577E-03    7.47443303E-15
 -1.14128576E-03    5.59595281E-15
 -1.13978575E-03    3.53359297E-15
 -1.13828573E-03    1.28623827E-15
 -1.13678572E-03   -1.14613521E-15
 -1.13528571E-03   -3.76238017E-15
 -1.13378570E-03   -6.56010077E-15
 -1.13228569E-03   -9.53557928E-15
 -1.13078568E-03   -1.26837034E-14
 -1.12928567E-03   -1.59978977E-14
 -1.12778577E-03   -1.94700653E-14
 -1.12628576E-03   -2.30905264E-14
 -1.12478575E-03   -2.68479713E-14
 -1.12328574E-03   -3.07294134E-14
 -1.12178572E-03   -3.47201516E-14
 -1.12028571E-03   -3.88037550E-14
 -1.11878570E-03   -4.29620261E-14
 -1.11728569E-03   -4.71750121E-14
 -1.11578568E-03   -5.14209951E-14
 -1.11428567E-03   -5.56765090E-14
 -1.11278577E-03   -5.99163731E-14
 -1.11128576E-03   -6.41137195E-14
 -1.10978575E-03   -6.82400574E-14
 -1.10828574E-03   -7.22653410E-14
 -1.10678573E-03   -7.61580401E-14
 -1.10528572E-03   -7.98852426E-14
 -1.10378570E-03   -8.34127689E-14
 -1.10228569E-03   -8.67052876E-14
 -1.10078568E-03   -8.97264779E-14
 -1.09928567E-03   -9.24391721E-14
 -1.09778566E-03   -9.48055179E-14
 -1.09628576E-03   -9.67871955E-14
 -1.09478575E-03   -9.83456074E-14
 -1.09328574E-03   -9.94420814E-14
 -1.09178573E-03   -1.00038128E-13
 -1.09028572E-03   -1.00095672E-13
 -1.08878571E-03   -9.95773153E-14
 -1.08728569E-03   -9.84466008E-14
 -1.08578568E-03   -9.66682992E-14
 -1.08428567E-03   -9.42086985E-14
 -1.08278566E-03   -9.10359028E-14
 -1.08128577E-03   -8.71201304E-14
 -1.07978575E-03   -8.24340325E-14
 -1.07828574E-03   -7.69530042E-14
 -1.07678573E-03   -7.06555040E-14
 -1.07528572E-03   -6.35233511E-14
 -1.07378571E-03   -5.55420679E-14
 -1.07228570E-03   -4.67011615E-14
 -1.07078569E-03   -3.69944452E-14
 -1.06928567E-03   -2.64203180E-14
 -1.06778566E-03   -1.49820579E-14
 -1.06628577E-03   -2.68808426E-15
 -1.06478576E-03    1.04477838E-14
 -1.06328574E-03    2.44060939E-14
 -1.06178573E-03    3.91615417E-14
 -1.06028572E-03    5.46827869E-14
 -1.05878571E-03    7.09322737E-14
 -1.05728570E-03    8.78661022E-14
 -1.05578569E-03    1.05433911E-13
 -1.05428568E-03    1.23578800E-13
 -1.05278566E-03    1.42237283E-13
 -1.05128577E-03    1.61339285E-13
 -1.04978576E-03    1.80808141E-13
 -1.04828575E-03    2.00560705E-13
 -1.04678574E-03    2.20507423E-13
 -1.04528572E-03    2.40552478E-13
 -1.04378571E-03    2.60594009E-13
 -1.04228570E-03    2.80524329E-13
 -1.04078569E-03    3.00230164E-13
 -1.03928568E-03    3.19593012E-13
 -1.03778567E-03    3.38489490E-13
 -1.03628577E-03    3.56791772E-13
 -1.03478576E-03    3.74367990E-13
 -1.03328575E-03    3.91082728E-13
 -1.03178574E-03    4.06797588E-13
 -1.03028573E-03    4.21371759E-13
 -1.02878571E-03    4.34662614E-13
 -1.02728570E-03    4.46526334E-13
 -1.02578569E-03    4.56818611E-13
 -1.02428568E-03    4.65395409E-13
 -1.02278567E-03    4.72113613E-13
 -1.02128566E-03    4.76831953E-13
 -1.01978576E-03    4.79411595E-13
 -1.01828575E-03    4.79717123E-13
 -1.01678574E-03    4.77617295E-13
 -1.01528573E-03    4.72985962E-13
 -1.01378572E-03    4.65702834E-13
 -1.01228571E-03    4.55654449E-13
 -1.01078569E-03    4.42734960E-13
 -1.00928568E-03    4.26847061E-13
 -1.00778567E-03    4.07902824E-13
 -1.00628566E-03    3.85824565E-13
 -1.00478576E-03    3.60545713E-13
 -1.00328575E-03    3.32011626E-13
 -1.00178574E-03    3.00180345E-13
 -1.00028573E-03    2.65023490E-13
 -9.98785719E-04    2.26526927E-13
 -9.97285708E-04    1.84691536E-13
 -9.95785696E-04    1.39533879E-13
 -9.94285685E-04    9.10868535E-14
 -9.92785674E-04    3.94003237E-14
 -9.91285662E-04   -1.54583479E-14
 -9.89785767E-04   -7.34037668E-14
 -9.88285756E-04   -1.34332066E-13
 -9.86785744E-04   -1.98120505E-13
 -9.85285733E-04   -2.64627106E-13
 -9.83785721E-04   -3.33690351E-13
 -9.82285710E-04   -4.05129055E-13
 -9.80785699E-04   -4.78742100E-13
 -9.79285687E-04   -5.54308444E-13
 -9.77785676E-04   -6.31587068E-13
 -9.76285723E-04   -7.10317005E-13
 -9.74785711E-04   -7.90217555E-13
 -9.73285700E-04   -8.70988503E-13
 -9.71785688E-04   -9.52310388E-13
 -9.70285735E-04   -1.03384478E-12
 -9.68785724E-04   -1.11523497E-12
 -9.67285712E-04   -1.19610647E-12
 -9.65785701E-04   -1.27606747E-12
 -9.64285689E-04   -1.35470986E-12
 -9.62785736E-04   -1.43160993E-12
 -9.61285725E-04   -1.50632924E-12
 -9.59785713E-04   -1.57841568E-12
 -9.58285702E-04   -1.64740476E-12
 -9.56785691E-04   -1.71282064E-12
 -9.55285737E-04   -1.77417770E-12
 -9.53785726E-04   -1.83098176E-12
 -9.52285714E-04   -1.88273160E-12
 -9.50785703E-04   -1.92892100E-12
 -9.49285692E-04   -1.96904017E-12
 -9.47785738E-04   -2.00257779E-12
 -9.46285727E-04   -2.02902300E-12
 -9.44785716E-04   -2.04786752E-12
 -9.43285704E-04   -2.05860806E-12
 -9.41785693E-04   -2.06074849E-12
 -9.40285739E-04   -2.05380222E-12
 -9.38785728E-04   -2.03729503E-12
 -9.37285717E-04   -2.01076764E-12
 -9.35785705E-04   -1.97377878E-12
 -9.34285694E-04   -1.92590757E-12
 -9.32785741E-04   -1.86675697E-12
 -9.31285729E-04   -1.79595705E-12
 -9.29785718E-04   -1.71316748E-12
 -9.28285706E-04   -1.61808154E-12
 -9.26785695E-04   -1.51042915E-12
 -9.25285742E-04   -1.38998014E-12
 -9.23785730E-04   -1.25654803E-12
 -9.22285719E-04   -1.10999328E-12
 -9.20785707E-04   -9.50226768E-13
 -9.19285696E-04   -7.77213363E-13
 -9.17785743E-04   -5.90975402E-13
 -9.16285731E-04   -3.91596179E-13
 -9.14785720E-04   -1.79223132E-13
 -9.13285709E-04    4.59287759E-14
 -9.11785697E-04    2.83573891E-13
 -9.10285686E-04    5.33352822E-13
 -9.08785732E-04    7.94829697E-13
 -9.07285721E-04    1.06748930E-12
 -9.05785710E-04    1.35073485E-12
 -9.04285698E-04    1.64388566E-12
 -9.02785687E-04    1.94617543E-12
 -9.01285734E-04    2.25675034E-12
 -8.99785722E-04    2.57466834E-12
 -8.98285711E-04    2.89889814E-12
 -8.96785699E-04    3.22831865E-12
 -8.95285688E-04    3.56171906E-12
 -8.93785735E-04    3.89779962E-12
 -8.92285723E-04    4.23517298E-12
 -8.90785712E-04    4.57236506E-12
 -8.89285700E-04    4.90781721E-12
 -8.87785689E-04    5.23989055E-12
 -8.86285736E-04    5.56686728E-12
 -8.84785724E-04    5.88695672E-12
 -8.83285713E-04    6.19829882E-12
 -8.81785701E-04    6.49896977E-12
 -8.80285690E-04    6.78698807E-12
 -8.78785737E-04    7.06032238E-12
 -8.77285725E-04    7.31689796E-12
 -8.75785714E-04    7.55460538E-12
 -8.74285703E-04    7.77130790E-12
 -8.72785691E-04    7.96485447E-12
 -8.71285738E-04    8.13308709E-12
 -8.69785727E-04    8.27385122E-12
 -8.68285715E-04    8.38501057E-12
 -8.66785704E-04    8.46445657E-12
 -8.65285692E-04    8.51011969E-12
 -8.63785739E-04    8.51998680E-12
 -8.62285728E-04    8.49210979E-12
 -8.60785716E-04    8.42462298E-12
 -8.59285705E-04    8.31575520E-12
 -8.57785693E-04    8.16384460E-12
 -8.56285740E-04    7.96735247E-12
 -8.54785729E-04    7.72487976E-12
 -8.53285717E-04    7.43517921E-12
 -8.51785706E-04    7.09717094E-12
 -8.50285694E-04    6.70995507E-12
 -8.48785741E-04    6.27282774E-12
 -8.47285730E-04    5.78529195E-12
 -8.45785718E-04    5.24707231E-12
 -8.44285707E-04    4.65812632E-12
 -8.42785696E-04    4.01865607E-12
 -8.41285742E-04    3.32911801E-12
 -8.39785731E-04    2.59023358E-12
 -8.38285720E-04    1.80299753E-12
 -8.36785708E-04    9.68685093E-13
 -8.35285697E-04    8.88584250E-14
 -8.33785685E-04   -8.34628590E-13
 -8.32285732E-04   -1.79962707E-12
 -8.30785721E-04   -2.80369087E-12
 -8.29285709E-04   -3.84407653E-12
 -8.27785698E-04   -4.91774416E-12
 -8.26285686E-04   -6.02136049E-12
 -8.24785733E-04   -7.15130342E-12
 -8.23285722E-04   -8.30366852E-12
 -8.21785710E-04   -9.47427640E-12
 -8.20285699E-04   -1.06586849E-11
 -8.18785687E-04   -1.18521972E-11
 -8.17285734E-04   -1.30498798E-11
 -8.15785723E-04   -1.42465735E-11
 -8.14285711E-04   -1.54369122E-11
 -8.12785700E-04   -1.66153428E-11
 -8.11285689E-04   -1.77761434E-11
 -8.09785735E-04   -1.89134472E-11
 -8.08285724E-04   -2.00212624E-11
 -8.06785712E-04   -2.10934985E-11
 -8.05285701E-04   -2.21239953E-11
 -8.03785690E-04   -2.31065427E-11
 -8.02285736E-04   -2.40349164E-11
 -8.00785725E-04   -2.49029009E-11
 -7.99285714E-04   -2.57043206E-11
 -7.97785702E-04   -2.64330710E-11
 -7.96285691E-04   -2.70831500E-11
 -7.94785738E-04   -2.76486820E-11
 -7.93285726E-04   -2.81239563E-11
 -7.91785715E-04   -2.85034548E-11
 -7.90285703E-04   -2.87818797E-11
 -7.88785692E-04   -2.89541880E-11
 -7.87285739E-04   -2.90156163E-11
 -7.85785727E-04   -2.89617098E-11
 -7.84285716E-04   -2.87883519E-11
 -7.82785704E-04   -2.84917905E-11
 -7.81285693E-04   -2.80686602E-11
 -7.79785740E-04   -2.75160068E-11
 -7.78285728E-04   -2.68313115E-11
 -7.76785717E-04   -2.60125081E-11
 -7.75285705E-04   -2.50580060E-11
 -7.73785694E-04   -2.39667019E-11
 -7.72285741E-04   -2.27379972E-11
 -7.70785729E-04   -2.13718140E-11
 -7.69285718E-04   -1.98685998E-11
 -7.67785707E-04   -1.82293399E-11
 -7.66285695E-04   -1.64555661E-11
 -7.64785742E-04   -1.45493574E-11
 -7.63285730E-04   -1.25133445E-11
 -7.61785719E-04   -1.03507116E-11
 -7.60285708E-04   -8.06519174E-12
 -7.58785696E-04   -5.66106710E-12
 -7.57285743E-04   -3.14316173E-12
 -7.55785732E-04   -5.16834351E-13
 -7.54285720E-04    2.21202960E-12
 -7.52785709E-04    5.03702809E-12
 -7.51285697E-04    7.95125511E-12
 -7.49785686E-04    1.09473142E-11
 -7.48285733E-04    1.40173316E-11
 -7.46785721E-04    1.71529735E-11
 -7.45285710E-04    2.03454597E-11
 -7.43785698E-04    2.35855849E-11
 -7.42285687E-04    2.68637352E-11
 -7.40785734E-04    3.01699082E-11
 -7.39285722E-04    3.34937321E-11
 -7.37785711E-04    3.68244844E-11
 -7.36285700E-04    4.01511151E-11
 -7.34785688E-04    4.34622685E-11
 -7.33285735E-04    4.67463013E-11
 -7.31785723E-04    4.99913028E-11
 -7.30285712E-04    5.31851195E-11
 -7.28785701E-04    5.63153829E-11
 -7.27285689E-04    5.93695232E-11
 -7.25785736E-04    6.23347901E-11
 -7.24285725E-04    6.51982843E-11
 -7.22785713E-04    6.79469814E-11
 -7.21285702E-04    7.05677461E-11
 -7.19785690E-04    7.30473598E-11
 -7.18285737E-04    7.53725554E-11
 -7.16785726E-04    7.75300310E-11
 -7.15285714E-04    7.95064778E-11
 -7.13785703E-04    8.12886286E-11
 -7.12285691E-04    8.28632579E-11
 -7.10785738E-04    8.42172304E-11
 -7.09285727E-04    8.53375356E-11
 -7.07785715E-04    8.62113228E-11
 -7.06285704E-04    8.68259284E-11
 -7.04785693E-04    8.71689179E-11
 -7.03285739E-04    8.72281483E-11
 -7.01785728E-04    8.69917818E-11
 -7.00285716E-04    8.64483624E-11
 -6.98785705E-04    8.55868432E-11
 -6.97285694E-04    8.43966563E-11
 -6.95785740E-04    8.28677613E-11
 -6.94285729E-04    8.09907141E-11
 -6.92785718E-04    7.87567234E-11
 -6.91285706E-04    7.61577121E-11
 -6.89785695E-04    7.31863944E-11
 -6.88285741E-04    6.98363589E-11
 -6.86785730E-04    6.61021168E-11
 -6.85285719E-04    6.19792065E-11
 -6.83785707E-04    5.74642590E-11
 -6.82285696E-04    5.25550749E-11
 -6.80785743E-04    4.72507207E-11
 -6.79285731E-04    4.15516024E-11
 -6.77785720E-04    3.54595589E-11
 -6.76285708E-04    2.89779381E-11
 -6.74785697E-04    2.21116840E-11
 -6.73285685E-04    1.48674181E-11
 -6.71785732E-04    7.25351853E-12
 -6.70285721E-04   -7.19800575E-13
 -6.68785709E-04   -9.04041859E-12
 -6.67285698E-04   -1.76942384E-11
 -6.65785687E-04   -2.66651267E-11
 -6.64285733E-04   -3.59348523E-11
 -6.62785722E-04   -4.54830409E-11
 -6.61285711E-04   -5.52871325E-11
 -6.59785699E-04   -6.53223517E-11
 -6.58285688E-04   -7.55616819E-11
 -6.56785734E-04   -8.59758653E-11
 -6.55285723E-04   -9.65333855E-11
 -6.53785712E-04   -1.07200492E-10
 -6.52285700E-04   -1.17941240E-10
 -6.50785689E-04   -1.28717523E-10
 -6.49285736E-04   -1.39489101E-10
 -6.47785724E-04   -1.50213730E-10
 -6.46285713E-04   -1.60847211E-10
 -6.44785701E-04   -1.71343509E-10
 -6.43285690E-04   -1.81654858E-10
 -6.41785737E-04   -1.91731908E-10
 -6.40285725E-04   -2.01523909E-10
 -6.38785714E-04   -2.10978832E-10
 -6.37285702E-04   -2.20043608E-10
 -6.35785691E-04   -2.28664310E-10
 -6.34285738E-04   -2.36786396E-10
 -6.32785726E-04   -2.44354870E-10
 -6.31285715E-04   -2.51314664E-10
 -6.29785703E-04   -2.57610822E-10
 -6.28285692E-04   -2.63188776E-10
 -6.26785739E-04   -2.67994654E-10
 -6.25285727E-04   -2.71975609E-10
 -6.23785716E-04   -2.75080070E-10
 -6.22285705E-04   -2.77258133E-10
 -6.20785693E-04   -2.78461809E-10
 -6.19285740E-04   -2.78645412E-10
 -6.17785729E-04   -2.77765838E-10
 -6.16285717E-04   -2.75782952E-10
 -6.14785706E-04   -2.72659839E-10
 -6.13285694E-04   -2.68363221E-10
 -6.11785741E-04   -2.62863648E-10
 -6.10285730E-04   -2.56135918E-10
 -6.08785718E-04   -2.48159326E-10
 -6.07285707E-04   -2.38917913E-10
 -6.05785695E-04   -2.28400784E-10
 -6.04285742E-04   -2.16602306E-10
 -6.02785731E-04   -2.03522366E-10
 -6.01285719E-04   -1.89166571E-10
 -5.99785708E-04   -1.73546386E-10
 -5.98285696E-04   -1.56679350E-10
 -5.96785743E-04   -1.38589140E-10
 -5.95285732E-04   -1.19305690E-10
 -5.93785720E-04   -9.88652424E-11
 -5.92285709E-04   -7.73103873E-11
 -5.90785698E-04   -5.46900511E-11
 -5.89285686E-04   -3.10594432E-11
 -5.87785733E-04   -6.47999623E-12
 -5.86285722E-04    1.89807579E-11
 -5.84785710E-04    4.52493355E-11
 -5.83285699E-04    7.22464796E-11
 -5.81785687E-04    9.98873970E-11
 -5.80285734E-04    1.28082003E-10
 -5.78785723E-04    1.56735208E-10
 -5.77285711E-04    1.85747251E-10
 -5.75785700E-04    2.15014048E-10
 -5.74285688E-04    2.44427589E-10
 -5.72785735E-04    2.73876366E-10
 -5.71285724E-04    3.03245790E-10
 -5.69785712E-04    3.32418648E-10
 -5.68285701E-04    3.61275621E-10
 -5.66785689E-04    3.89695803E-10
 -5.65285736E-04    4.17557156E-10
 -5.63785725E-04    4.44737136E-10
 -5.62285713E-04    4.71113148E-10
 -5.60785702E-04    4.96563179E-10
 -5.59285691E-04    5.20966326E-10
 -5.57785737E-04    5.44203294E-10
 -5.56285726E-04    5.66157066E-10
 -5.54785714E-04    5.86713400E-10
 -5.53285703E-04    6.05761274E-10
 -5.51785692E-04    6.23193608E-10
 -5.50285738E-04    6.38907538E-10
 -5.48785727E-04    6.52805088E-10
 -5.47285716E-04    6.64793498E-10
 -5.45785704E-04    6.74785783E-10
 -5.44285693E-04    6.82701118E-10
 -5.42785740E-04    6.88465174E-10
 -5.41285728E-04    6.92010449E-10
 -5.39785717E-04    6.93276658E-10
 -5.38285705E-04    6.92211011E-10
 -5.36785694E-04    6.88768320E-10
 -5.35285741E-04    6.82911394E-10
 -5.33785729E-04    6.74611089E-10
 -5.32285718E-04    6.63846422E-10
 -5.30785706E-04    6.50604737E-10
 -5.29285695E-04    6.34881703E-10
 -5.27785742E-04    6.16681373E-10
 -5.26285730E-04    5.96016014E-10
 -5.24785719E-04    5.72906222E-10
 -5.23285707E-04    5.47380752E-10
 -5.21785696E-04    5.19476406E-10
 -5.20285743E-04    4.89237761E-10
 -5.18785731E-04    4.56717109E-10
 -5.17285720E-04    4.21974233E-10
 -5.15785709E-04    3.85076110E-10
 -5.14285697E-04    3.46096707E-10
 -5.12785686E-04    3.05116654E-10
 -5.11285733E-04    2.62222993E-10
 -5.09785721E-04    2.17508858E-10
 -5.08285710E-04    1.71073170E-10
 -5.06785698E-04    1.23020316E-10
 -5.05285687E-04    7.34598563E-11
 -5.03785734E-04    2.25061792E-11
 -5.02285722E-04   -2.97217979E-11
 -5.00785711E-04   -8.31009289E-11
 -4.99285699E-04   -1.37504147E-10
 -4.97785688E-04   -1.92800748E-10
 -4.96285735E-04   -2.48856630E-10
 -4.94785723E-04   -3.05534625E-10
 -4.93285712E-04   -3.62694680E-10
 -4.91785700E-04   -4.20194074E-10
 -4.90285689E-04   -4.77887729E-10
 -4.88785736E-04   -5.35628208E-10
 -4.87285724E-04   -5.93266158E-10
 -4.85785713E-04   -6.50650200E-10
 -4.84285702E-04   -7.07627235E-10
 -4.82785719E-04   -7.64042496E-10
 -4.81285708E-04   -8.19739721E-10
 -4.79785725E-04   -8.74561201E-10
 -4.78285714E-04   -9.28347899E-10
 -4.76785703E-04   -9.80939552E-10
 -4.75285720E-04   -1.03217468E-09
 -4.73785709E-04   -1.08189091E-09
 -4.72285727E-04   -1.12992471E-09
 -4.70785715E-04   -1.17611176E-09
 -4.69285704E-04   -1.22028687E-09
 -4.67785721E-04   -1.26228439E-09
 -4.66285710E-04   -1.30193800E-09
 -4.64785728E-04   -1.33908118E-09
 -4.63285716E-04   -1.37354728E-09
 -4.61785705E-04   -1.40516965E-09
 -4.60285723E-04   -1.43378220E-09
 -4.58785711E-04   -1.45921941E-09
 -4.57285729E-04   -1.48131685E-09
 -4.55785717E-04   -1.49991142E-09
 -4.54285706E-04   -1.51484203E-09
 -4.52785724E-04   -1.52594992E-09
 -4.51285712E-04   -1.53307922E-09
 -4.49785701E-04   -1.53607749E-09
 -4.48285718E-04   -1.53479651E-09
 -4.46785707E-04   -1.52909307E-09
 -4.45285725E-04   -1.51882928E-09
 -4.43785713E-04   -1.50387391E-09
 -4.42285702E-04   -1.48410295E-09
 -4.40785720E-04   -1.45940060E-09
 -4.39285708E-04   -1.42965995E-09
 -4.37785726E-04   -1.39478451E-09
 -4.36285714E-04   -1.35468869E-09
 -4.34785703E-04   -1.30929911E-09
 -4.33285721E-04   -1.25855570E-09
 -4.31785709E-04   -1.20241250E-09
 -4.30285727E-04   -1.14083898E-09