 -1.71428570E-03     0.0000000    
 -1.71278568E-03     0.0000000    
 -1.71128567E-03     0.0000000    
 -1.70978566E-03     0.0000000    
 -1.70828577E-03     0.0000000    
 -1.70678576E-03     0.0000000    
 -1.70528574E-03     0.0000000    
 -1.70378573E-03     0.0000000    
 -1.70228572E-03     0.0000000    
 -1.70078571E-03     0.0000000    
 -1.69928570E-03     0.0000000    
 -1.69778569E-03     0.0000000    
 -1.69628568E-03     0.0000000    
 -1.69478566E-03     0.0000000    
 -1.69328577E-03     0.0000000    
 -1.69178576E-03     0.0000000    
 -1.69028575E-03     0.0000000    
 -1.68878573E-03     0.0000000    
 -1.68728572E-03     0.0000000    
 -1.68578571E-03     0.0000000    
 -1.68428570E-03     0.0000000    
 -1.68278569E-03     0.0000000    
 -1.68128568E-03     0.0000000    
 -1.67978567E-03     0.0000000    
 -1.67828577E-03     0.0000000    
 -1.67678576E-03     0.0000000    
 -1.67528575E-03     0.0000000    
 -1.67378574E-03     0.0000000    
 -1.67228573E-03     0.0000000    
 -1.67078571E-03     0.0000000    
 -1.66928570E-03     0.0000000    
 -1.66778569E-03     0.0000000    
 -1.66628568E-03     0.0000000    
 -1.66478567E-03     0.0000000    
 -1.66328566E-03     0.0000000    
 -1.66178576E-03     0.0000000    
 -1.66028575E-03     0.0000000    
 -1.65878574E-03     0.0000000    
 -1.65728573E-03     0.0000000    
 -1.65578572E-03     0.0000000    
 -1.65428570E-03     0.0000000    
 -1.65278569E-03     0.0000000    
 -1.65128568E-03     0.0000000    
 -1.64978567E-03     0.0000000    
 -1.64828566E-03     0.0000000    
 -1.64678576E-03     0.0000000    
 -1.64528575E-03     0.0000000    
 -1.64378574E-03     0.0000000    
 -1.64228573E-03     0.0000000    
 -1.64078572E-03     0.0000000    
 -1.63928571E-03     0.0000000    
 -1.63778570E-03     0.0000000    
 -1.63628568E-03     0.0000000    
 -1.63478567E-03     0.0000000    
 -1.63328566E-03     0.0000000    
 -1.63178577E-03     0.0000000    
 -1.63028575E-03     0.0000000    
 -1.62878574E-03     0.0000000    
 -1.62728573E-03     0.0000000    
 -1.62578572E-03     0.0000000    
 -1.62428571E-03     0.0000000    
 -1.62278570E-03     0.0000000    
 -1.62128569E-03     0.0000000    
 -1.61978567E-03     0.0000000    
 -1.61828566E-03     0.0000000    
 -1.61678577E-03     0.0000000    
 -1.61528576E-03     0.0000000    
 -1.61378575E-03     0.0000000    
 -1.61228573E-03     0.0000000    
 -1.61078572E-03     0.0000000    
 -1.60928571E-03     0.0000000    
 -1.60778570E-03     0.0000000    
 -1.60628569E-03     0.0000000    
 -1.60478568E-03     0.0000000    
 -1.60328567E-03     0.0000000    
 -1.60178577E-03     0.0000000    
 -1.60028576E-03     0.0000000    
 -1.59878575E-03     0.0000000    
 -1.59728574E-03     0.0000000    
 -1.59578572E-03     0.0000000    
 -1.59428571E-03     0.0000000    
 -1.59278570E-03     0.0000000    
 -1.59128569E-03     0.0000000    
 -1.58978568E-03     0.0000000    
 -1.58828567E-03     0.0000000    
 -1.58678566E-03     0.0000000    
 -1.58528576E-03     0.0000000    
 -1.58378575E-03     0.0000000    
 -1.58228574E-03     0.0000000    
 -1.58078573E-03     0.0000000    
 -1.57928572E-03     0.0000000    
 -1.57778570E-03     0.0000000    
 -1.57628569E-03     0.0000000    
 -1.57478568E-03     0.0000000    
 -1.57328567E-03     0.0000000    
 -1.57178566E-03     0.0000000    
 -1.57028576E-03     0.0000000    
 -1.56878575E-03     0.0000000    
 -1.56728574E-03     0.0000000    
 -1.56578573E-03     0.0000000    
 -1.56428572E-03     0.0000000    
 -1.56278571E-03     0.0000000    
 -1.56128570E-03     0.0000000    
 -1.55978568E-03     0.0000000    
 -1.55828567E-03     0.0000000    
 -1.55678566E-03     0.0000000    
 -1.55528577E-03     0.0000000    
 -1.55378575E-03     0.0000000    
 -1.55228574E-03     0.0000000    
 -1.55078573E-03     0.0000000    
 -1.54928572E-03     0.0000000    
 -1.54778571E-03     0.0000000    
 -1.54628570E-03     0.0000000    
 -1.54478569E-03     0.0000000    
 -1.54328567E-03     0.0000000    
 -1.54178566E-03     0.0000000    
 -1.54028577E-03     0.0000000    
 -1.53878576E-03     0.0000000    
 -1.53728575E-03     0.0000000    
 -1.53578573E-03     0.0000000    
 -1.53428572E-03     0.0000000    
 -1.53278571E-03     0.0000000    
 -1.53128570E-03     0.0000000    
 -1.52978569E-03     0.0000000    
 -1.52828568E-03     0.0000000    
 -1.52678567E-03     0.0000000    
 -1.52528577E-03     0.0000000    
 -1.52378576E-03     0.0000000    
 -1.52228575E-03     0.0000000    
 -1.52078574E-03     0.0000000    
 -1.51928572E-03     0.0000000    
 -1.51778571E-03     0.0000000    
 -1.51628570E-03     0.0000000    
 -1.51478569E-03     0.0000000    
 -1.51328568E-03     0.0000000    
 -1.51178567E-03     0.0000000    
 -1.51028577E-03     0.0000000    
 -1.50878576E-03     0.0000000    
 -1.50728575E-03     0.0000000    
 -1.50578574E-03     0.0000000    
 -1.50428573E-03     0.0000000    
 -1.50278572E-03     0.0000000    
 -1.50128570E-03     0.0000000    
 -1.49978569E-03     0.0000000    
 -1.49828568E-03     0.0000000    
 -1.49678567E-03     0.0000000    
 -1.49528566E-03     0.0000000    
 -1.49378576E-03     0.0000000    
 -1.49228575E-03     0.0000000    
 -1.49078574E-03     0.0000000    
 -1.48928573E-03     0.0000000    
 -1.48778572E-03     0.0000000    
 -1.48628571E-03     0.0000000    
 -1.48478569E-03     0.0000000    
 -1.48328568E-03     0.0000000    
 -1.48178567E-03     0.0000000    
 -1.48028566E-03     0.0000000    
 -1.47878577E-03     0.0000000    
 -1.47728575E-03     0.0000000    
 -1.47578574E-03     0.0000000    
 -1.47428573E-03     0.0000000    
 -1.47278572E-03     0.0000000    
 -1.47128571E-03     0.0000000    
 -1.46978570E-03     0.0000000    
 -1.46828569E-03     0.0000000    
 -1.46678567E-03     0.0000000    
 -1.46528566E-03     0.0000000    
 -1.46378577E-03     0.0000000    
 -1.46228576E-03     0.0000000    
 -1.46078574E-03     0.0000000    
 -1.45928573E-03     0.0000000    
 -1.45778572E-03     0.0000000    
 -1.45628571E-03     0.0000000    
 -1.45478570E-03     0.0000000    
 -1.45328569E-03     0.0000000    
 -1.45178568E-03     0.0000000    
 -1.45028566E-03     0.0000000    
 -1.44878577E-03     0.0000000    
 -1.44728576E-03     0.0000000    
 -1.44578575E-03     0.0000000    
 -1.44428574E-03     0.0000000    
 -1.44278572E-03     0.0000000    
 -1.44128571E-03     0.0000000    
 -1.43978570E-03     0.0000000    
 -1.43828569E-03     0.0000000    
 -1.43678568E-03     0.0000000    
 -1.43528567E-03     0.0000000    
 -1.43378577E-03     0.0000000    
 -1.43228576E-03     0.0000000    
 -1.43078575E-03     0.0000000    
 -1.42928574E-03     0.0000000    
 -1.42778573E-03     0.0000000    
 -1.42628571E-03     0.0000000    
 -1.42478570E-03     0.0000000    
 -1.42328569E-03     0.0000000    
 -1.42178568E-03     0.0000000    
 -1.42028567E-03     0.0000000    
 -1.41878566E-03     0.0000000    
 -1.41728576E-03     0.0000000    
 -1.41578575E-03     0.0000000    
 -1.41428574E-03     0.0000000    
 -1.41278573E-03     0.0000000    
 -1.41128572E-03     0.0000000    
 -1.40978571E-03     0.0000000    
 -1.40828569E-03     0.0000000    
 -1.40678568E-03     0.0000000    
 -1.40528567E-03     0.0000000    
 -1.40378566E-03     0.0000000    
 -1.40228576E-03     0.0000000    
 -1.40078575E-03     0.0000000    
 -1.39928574E-03     0.0000000    
 -1.39778573E-03     0.0000000    
 -1.39628572E-03     0.0000000    
 -1.39478571E-03     0.0000000    
 -1.39328570E-03     0.0000000    
 -1.39178568E-03     0.0000000    
 -1.39028567E-03     0.0000000    
 -1.38878566E-03     0.0000000    
 -1.38728577E-03     0.0000000    
 -1.38578576E-03     0.0000000    
 -1.38428574E-03     0.0000000    
 -1.38278573E-03     0.0000000    
 -1.38128572E-03     0.0000000    
 -1.37978571E-03     0.0000000    
 -1.37828570E-03     0.0000000    
 -1.37678569E-03     0.0000000    
 -1.37528568E-03     0.0000000    
 -1.37378566E-03     0.0000000    
 -1.37228577E-03     0.0000000    
 -1.37078576E-03     0.0000000    
 -1.36928575E-03     0.0000000    
 -1.36778574E-03     0.0000000    
 -1.36628572E-03     0.0000000    
 -1.36478571E-03     0.0000000    
 -1.36328570E-03     0.0000000    
 -1.36178569E-03     0.0000000    
 -1.36028568E-03     0.0000000    
 -1.35878567E-03     0.0000000    
 -1.35728577E-03     0.0000000    
 -1.35578576E-03     0.0000000    
 -1.35428575E-03     0.0000000    
 -1.35278574E-03     0.0000000    
 -1.35128573E-03     0.0000000    
 -1.34978571E-03     0.0000000    
 -1.34828570E-03     0.0000000    
 -1.34678569E-03     0.0000000    
 -1.34528568E-03     0.0000000    
 -1.34378567E-03     0.0000000    
 -1.34228566E-03     0.0000000    
 -1.34078576E-03     0.0000000    
 -1.33928575E-03     0.0000000    
 -1.33778574E-03     0.0000000    
 -1.33628573E-03     0.0000000    
 -1.33478572E-03     0.0000000    
 -1.33328571E-03     0.0000000    
 -1.33178569E-03     0.0000000    
 -1.33028568E-03     0.0000000    
 -1.32878567E-03     0.0000000    
 -1.32728566E-03     0.0000000    
 -1.32578576E-03     0.0000000    
 -1.32428575E-03     0.0000000    
 -1.32278574E-03     0.0000000    
 -1.32128573E-03     0.0000000    
 -1.31978572E-03     0.0000000    
 -1.31828571E-03     0.0000000    
 -1.31678570E-03     0.0000000    
 -1.31528568E-03     0.0000000    
 -1.31378567E-03     0.0000000    
 -1.31228566E-03     0.0000000    
 -1.31078577E-03     0.0000000    
 -1.30928576E-03     0.0000000    
 -1.30778574E-03     0.0000000    
 -1.30628573E-03     0.0000000    
 -1.30478572E-03     0.0000000    
 -1.30328571E-03     0.0000000    
 -1.30178570E-03     0.0000000    
 -1.30028569E-03     0.0000000    
 -1.29878568E-03     0.0000000    
 -1.29728566E-03     0.0000000    
 -1.29578577E-03     0.0000000    
 -1.29428576E-03     0.0000000    
 -1.29278575E-03     0.0000000    
 -1.29128573E-03     0.0000000    
 -1.28978572E-03     0.0000000    
 -1.28828571E-03     0.0000000    
 -1.28678570E-03     0.0000000    
 -1.28528569E-03     0.0000000    
 -1.28378568E-03     0.0000000    
 -1.28228567E-03     0.0000000    
 -1.28078577E-03     0.0000000    
 -1.27928576E-03     0.0000000    
 -1.27778575E-03     0.0000000    
 -1.27628574E-03     0.0000000    
 -1.27478573E-03     0.0000000    
 -1.27328571E-03     0.0000000    
 -1.27178570E-03     0.0000000    
 -1.27028569E-03     0.0000000    
 -1.26878568E-03     0.0000000    
 -1.26728567E-03     0.0000000    
 -1.26578566E-03     0.0000000    
 -1.26428576E-03     0.0000000    
 -1.26278575E-03     0.0000000    
 -1.26128574E-03     0.0000000    
 -1.25978573E-03     0.0000000    
 -1.25828572E-03     0.0000000    
 -1.25678570E-03     0.0000000    
 -1.25528569E-03     0.0000000    
 -1.25378568E-03     0.0000000    
 -1.25228567E-03     0.0000000    
 -1.25078566E-03     0.0000000    
 -1.24928576E-03     0.0000000    
 -1.24778575E-03     0.0000000    
 -1.24628574E-03     0.0000000    
 -1.24478573E-03     0.0000000    
 -1.24328572E-03     0.0000000    
 -1.24178571E-03     0.0000000    
 -1.24028570E-03     0.0000000    
 -1.23878568E-03     0.0000000    
 -1.23728567E-03     0.0000000    
 -1.23578566E-03     0.0000000    
 -1.23428577E-03     0.0000000    
 -1.23278575E-03     0.0000000    
 -1.23128574E-03     0.0000000    
 -1.22978573E-03     0.0000000    
 -1.22828572E-03     0.0000000    
 -1.22678571E-03     0.0000000    
 -1.22528570E-03     0.0000000    
 -1.22378569E-03     0.0000000    
 -1.22228567E-03     0.0000000    
 -1.22078566E-03     0.0000000    
 -1.21928577E-03     0.0000000    
 -1.21778576E-03     0.0000000    
 -1.21628575E-03     0.0000000    
 -1.21478573E-03     0.0000000    
 -1.21328572E-03     0.0000000    
 -1.21178571E-03     0.0000000    
 -1.21028570E-03     0.0000000    
 -1.20878569E-03     0.0000000    
 -1.20728568E-03     0.0000000    
 -1.20578567E-03     0.0000000    
 -1.20428577E-03     0.0000000    
 -1.20278576E-03     0.0000000    
 -1.20128575E-03     0.0000000    
 -1.19978574E-03     0.0000000    
 -1.19828572E-03     0.0000000    
 -1.19678571E-03     0.0000000    
 -1.19528570E-03     0.0000000    
 -1.19378569E-03     0.0000000    
 -1.19228568E-03     0.0000000    
 -1.19078567E-03     0.0000000    
 -1.18928566E-03     0.0000000    
 -1.18778576E-03     0.0000000    
 -1.18628575E-03     0.0000000    
 -1.18478574E-03     0.0000000    
 -1.18328573E-03     0.0000000    
 -1.18178572E-03     0.0000000    
 -1.18028570E-03     0.0000000    
 -1.17878569E-03     0.0000000    
 -1.17728568E-03     0.0000000    
 -1.17578567E-03     0.0000000    
 -1.17428566E-03     0.0000000    
 -1.17278576E-03     0.0000000    
 -1.17128575E-03     0.0000000    
 -1.16978574E-03     0.0000000    
 -1.16828573E-03     0.0000000    
 -1.16678572E-03     0.0000000    
 -1.16528571E-03     0.0000000    
 -1.16378570E-03     0.0000000    
 -1.16228568E-03     0.0000000    
 -1.16078567E-03     0.0000000    
 -1.15928566E-03     0.0000000    
 -1.15778577E-03     0.0000000    
 -1.15628575E-03     0.0000000    
 -1.15478574E-03     0.0000000    
 -1.15328573E-03     0.0000000    
 -1.15178572E-03     0.0000000    
 -1.15028571E-03     0.0000000    
 -1.14878570E-03     0.0000000    
 -1.14728569E-03     0.0000000    
 -1.14578567E-03     0.0000000    
 -1.14428566E-03     0.0000000    
 -1.14278577E-03     0.0000000    
 -1.14128576E-03     0.0000000    
 -1.13978575E-03     0.0000000    
 -1.13828573E-03     0.0000000    
 -1.13678572E-03     0.0000000    
 -1.13528571E-03     0.0000000    
 -1.13378570E-03     0.0000000    
 -1.13228569E-03     0.0000000    
 -1.13078568E-03     0.0000000    
 -1.12928567E-03     0.0000000    
 -1.12778577E-03     0.0000000    
 -1.12628576E-03     0.0000000    
 -1.12478575E-03     0.0000000    
 -1.12328574E-03     0.0000000    
 -1.12178572E-03     0.0000000    
 -1.12028571E-03     0.0000000    
 -1.11878570E-03     0.0000000    
 -1.11728569E-03     0.0000000    
 -1.11578568E-03     0.0000000    
 -1.11428567E-03     0.0000000    
 -1.11278577E-03     0.0000000    
 -1.11128576E-03     0.0000000    
 -1.10978575E-03     0.0000000    
 -1.10828574E-03     0.0000000    
 -1.10678573E-03     0.0000000    
 -1.10528572E-03     0.0000000    
 -1.10378570E-03     0.0000000    
 -1.10228569E-03     0.0000000    
 -1.10078568E-03     0.0000000    
 -1.09928567E-03     0.0000000    
 -1.09778566E-03     0.0000000    
 -1.09628576E-03     0.0000000    
 -1.09478575E-03     0.0000000    
 -1.09328574E-03     0.0000000    
 -1.09178573E-03     0.0000000    
 -1.09028572E-03     0.0000000    
 -1.08878571E-03     0.0000000    
 -1.08728569E-03     0.0000000    
 -1.08578568E-03     0.0000000    
 -1.08428567E-03     0.0000000    
 -1.08278566E-03     0.0000000    
 -1.08128577E-03     0.0000000    
 -1.07978575E-03     0.0000000    
 -1.07828574E-03     0.0000000    
 -1.07678573E-03     0.0000000    
 -1.07528572E-03     0.0000000    
 -1.07378571E-03     0.0000000    
 -1.07228570E-03     0.0000000    
 -1.07078569E-03     0.0000000    
 -1.06928567E-03     0.0000000    
 -1.06778566E-03     0.0000000    
 -1.06628577E-03     0.0000000    
 -1.06478576E-03     0.0000000    
 -1.06328574E-03     0.0000000    
 -1.06178573E-03     0.0000000    
 -1.06028572E-03     0.0000000    
 -1.05878571E-03     0.0000000    
 -1.05728570E-03     0.0000000    
 -1.05578569E-03     0.0000000    
 -1.05428568E-03     0.0000000    
 -1.05278566E-03     0.0000000    
 -1.05128577E-03     0.0000000    
 -1.04978576E-03     0.0000000    
 -1.04828575E-03     0.0000000    
 -1.04678574E-03     0.0000000    
 -1.04528572E-03     0.0000000    
 -1.04378571E-03     0.0000000    
 -1.04228570E-03     0.0000000    
 -1.04078569E-03     0.0000000    
 -1.03928568E-03     0.0000000    
 -1.03778567E-03     0.0000000    
 -1.03628577E-03     0.0000000    
 -1.03478576E-03     0.0000000    
 -1.03328575E-03     0.0000000    
 -1.03178574E-03     0.0000000    
 -1.03028573E-03     0.0000000    
 -1.02878571E-03     0.0000000    
 -1.02728570E-03     0.0000000    
 -1.02578569E-03     0.0000000    
 -1.02428568E-03     0.0000000    
 -1.02278567E-03     0.0000000    
 -1.02128566E-03     0.0000000    
 -1.01978576E-03     0.0000000    
 -1.01828575E-03     0.0000000    
 -1.01678574E-03     0.0000000    
 -1.01528573E-03     0.0000000    
 -1.01378572E-03     0.0000000    
 -1.01228571E-03     0.0000000    
 -1.01078569E-03     0.0000000    
 -1.00928568E-03     0.0000000    
 -1.00778567E-03     0.0000000    
 -1.00628566E-03     0.0000000    
 -1.00478576E-03     0.0000000    
 -1.00328575E-03     0.0000000    
 -1.00178574E-03     0.0000000    
 -1.00028573E-03     0.0000000    
 -9.98785719E-04     0.0000000    
 -9.97285708E-04     0.0000000    
 -9.95785696E-04     0.0000000    
 -9.94285685E-04     0.0000000    
 -9.92785674E-04     0.0000000    
 -9.91285662E-04     0.0000000    
 -9.89785767E-04     0.0000000    
 -9.88285756E-04     0.0000000    
 -9.86785744E-04     0.0000000    
 -9.85285733E-04     0.0000000    
 -9.83785721E-04     0.0000000    
 -9.82285710E-04     0.0000000    
 -9.80785699E-04     0.0000000    
 -9.79285687E-04     0.0000000    
 -9.77785676E-04     0.0000000    
 -9.76285723E-04     0.0000000    
 -9.74785711E-04     0.0000000    
 -9.73285700E-04     0.0000000    
 -9.71785688E-04     0.0000000    
 -9.70285735E-04     0.0000000    
 -9.68785724E-04     0.0000000    
 -9.67285712E-04     0.0000000    
 -9.65785701E-04     0.0000000    
 -9.64285689E-04     0.0000000    
 -9.62785736E-04     0.0000000    
 -9.61285725E-04     0.0000000    
 -9.59785713E-04     0.0000000    
 -9.58285702E-04     0.0000000    
 -9.56785691E-04     0.0000000    
 -9.55285737E-04     0.0000000    
 -9.53785726E-04     0.0000000    
 -9.52285714E-04     0.0000000    
 -9.50785703E-04     0.0000000    
 -9.49285692E-04     0.0000000    
 -9.47785738E-04     0.0000000    
 -9.46285727E-04     0.0000000    
 -9.44785716E-04     0.0000000    
 -9.43285704E-04     0.0000000    
 -9.41785693E-04     0.0000000    
 -9.40285739E-04     0.0000000    
 -9.38785728E-04     0.0000000    
 -9.37285717E-04     0.0000000    
 -9.35785705E-04     0.0000000    
 -9.34285694E-04     0.0000000    
 -9.32785741E-04     0.0000000    
 -9.31285729E-04     0.0000000    
 -9.29785718E-04     0.0000000    
 -9.28285706E-04     0.0000000    
 -9.26785695E-04     0.0000000    
 -9.25285742E-04     0.0000000    
 -9.23785730E-04     0.0000000    
 -9.22285719E-04     0.0000000    
 -9.20785707E-04     0.0000000    
 -9.19285696E-04     0.0000000    
 -9.17785743E-04     0.0000000    
 -9.16285731E-04     0.0000000    
 -9.14785720E-04     0.0000000    
 -9.13285709E-04     0.0000000    
 -9.11785697E-04     0.0000000    
 -9.10285686E-04     0.0000000    
 -9.08785732E-04     0.0000000    
 -9.07285721E-04     0.0000000    
 -9.05785710E-04     0.0000000    
 -9.04285698E-04     0.0000000    
 -9.02785687E-04     0.0000000    
 -9.01285734E-04     0.0000000    
 -8.99785722E-04     0.0000000    
 -8.98285711E-04     0.0000000    
 -8.96785699E-04     0.0000000    
 -8.95285688E-04     0.0000000    
 -8.93785735E-04     0.0000000    
 -8.92285723E-04     0.0000000    
 -8.90785712E-04     0.0000000    
 -8.89285700E-04     0.0000000    
 -8.87785689E-04     0.0000000    
 -8.86285736E-04     0.0000000    
 -8.84785724E-04     0.0000000    
 -8.83285713E-04     0.0000000    
 -8.81785701E-04     0.0000000    
 -8.80285690E-04     0.0000000    
 -8.78785737E-04     0.0000000    
 -8.77285725E-04     0.0000000    
 -8.75785714E-04     0.0000000    
 -8.74285703E-04     0.0000000    
 -8.72785691E-04     0.0000000    
 -8.71285738E-04     0.0000000    
 -8.69785727E-04     0.0000000    
 -8.68285715E-04     0.0000000    
 -8.66785704E-04     0.0000000    
 -8.65285692E-04     0.0000000    
 -8.63785739E-04     0.0000000    
 -8.62285728E-04     0.0000000    
 -8.60785716E-04     0.0000000    
 -8.59285705E-04     0.0000000    
 -8.57785693E-04     0.0000000    
 -8.56285740E-04     0.0000000    
 -8.54785729E-04     0.0000000    
 -8.53285717E-04     0.0000000    
 -8.51785706E-04     0.0000000    
 -8.50285694E-04     0.0000000    
 -8.48785741E-04     0.0000000    
 -8.47285730E-04     0.0000000    
 -8.45785718E-04     0.0000000    
 -8.44285707E-04     0.0000000    
 -8.42785696E-04     0.0000000    
 -8.41285742E-04     0.0000000    
 -8.39785731E-04     0.0000000    
 -8.38285720E-04     0.0000000    
 -8.36785708E-04     0.0000000    
 -8.35285697E-04     0.0000000    
 -8.33785685E-04     0.0000000    
 -8.32285732E-04     0.0000000    
 -8.30785721E-04     0.0000000    
 -8.29285709E-04     0.0000000    
 -8.27785698E-04     0.0000000    
 -8.26285686E-04     0.0000000    
 -8.24785733E-04     0.0000000    
 -8.23285722E-04     0.0000000    
 -8.21785710E-04     0.0000000    
 -8.20285699E-04     0.0000000    
 -8.18785687E-04     0.0000000    
 -8.17285734E-04     0.0000000    
 -8.15785723E-04     0.0000000    
 -8.14285711E-04     0.0000000    
 -8.12785700E-04     0.0000000    
 -8.11285689E-04     0.0000000    
 -8.09785735E-04     0.0000000    
 -8.08285724E-04     0.0000000    
 -8.06785712E-04     0.0000000    
 -8.05285701E-04     0.0000000    
 -8.03785690E-04     0.0000000    
 -8.02285736E-04     0.0000000    
 -8.00785725E-04     0.0000000    
 -7.99285714E-04     0.0000000    
 -7.97785702E-04     0.0000000    
 -7.96285691E-04     0.0000000    
 -7.94785738E-04     0.0000000    
 -7.93285726E-04     0.0000000    
 -7.91785715E-04     0.0000000    
 -7.90285703E-04     0.0000000    
 -7.88785692E-04     0.0000000    
 -7.87285739E-04     0.0000000    
 -7.85785727E-04     0.0000000    
 -7.84285716E-04     0.0000000    
 -7.82785704E-04     0.0000000    
 -7.81285693E-04     0.0000000    
 -7.79785740E-04     0.0000000    
 -7.78285728E-04     0.0000000    
 -7.76785717E-04     0.0000000    
 -7.75285705E-04     0.0000000    
 -7.73785694E-04     0.0000000    
 -7.72285741E-04     0.0000000    
 -7.70785729E-04     0.0000000    
 -7.69285718E-04     0.0000000    
 -7.67785707E-04     0.0000000    
 -7.66285695E-04     0.0000000    
 -7.64785742E-04     0.0000000    
 -7.63285730E-04     0.0000000    
 -7.61785719E-04     0.0000000    
 -7.60285708E-04     0.0000000    
 -7.58785696E-04     0.0000000    
 -7.57285743E-04     0.0000000    
 -7.55785732E-04     0.0000000    
 -7.54285720E-04     0.0000000    
 -7.52785709E-04     0.0000000    
 -7.51285697E-04     0.0000000    
 -7.49785686E-04     0.0000000    
 -7.48285733E-04     0.0000000    
 -7.46785721E-04     0.0000000    
 -7.45285710E-04     0.0000000    
 -7.43785698E-04     0.0000000    
 -7.42285687E-04     0.0000000    
 -7.40785734E-04     0.0000000    
 -7.39285722E-04     0.0000000    
 -7.37785711E-04     0.0000000    
 -7.36285700E-04     0.0000000    
 -7.34785688E-04     0.0000000    
 -7.33285735E-04     0.0000000    
 -7.31785723E-04     0.0000000    
 -7.30285712E-04     0.0000000    
 -7.28785701E-04     0.0000000    
 -7.27285689E-04     0.0000000    
 -7.25785736E-04     0.0000000    
 -7.24285725E-04     0.0000000    
 -7.22785713E-04     0.0000000    
 -7.21285702E-04     0.0000000    
 -7.19785690E-04     0.0000000    
 -7.18285737E-04     0.0000000    
 -7.16785726E-04     0.0000000    
 -7.15285714E-04     0.0000000    
 -7.13785703E-04     0.0000000    
 -7.12285691E-04     0.0000000    
 -7.10785738E-04     0.0000000    
 -7.09285727E-04     0.0000000    
 -7.07785715E-04     0.0000000    
 -7.06285704E-04     0.0000000    
 -7.04785693E-04     0.0000000    
 -7.03285739E-04     0.0000000    
 -7.01785728E-04     0.0000000    
 -7.00285716E-04     0.0000000    
 -6.98785705E-04     0.0000000    
 -6.97285694E-04     0.0000000    
 -6.95785740E-04     0.0000000    
 -6.94285729E-04     0.0000000    
 -6.92785718E-04     0.0000000    
 -6.91285706E-04     0.0000000    
 -6.89785695E-04     0.0000000    
 -6.88285741E-04     0.0000000    
 -6.86785730E-04     0.0000000    
 -6.85285719E-04     0.0000000    
 -6.83785707E-04     0.0000000    
 -6.82285696E-04     0.0000000    
 -6.80785743E-04     0.0000000    
 -6.79285731E-04     0.0000000    
 -6.77785720E-04     0.0000000    
 -6.76285708E-04     0.0000000    
 -6.74785697E-04     0.0000000    
 -6.73285685E-04     0.0000000    
 -6.71785732E-04     0.0000000    
 -6.70285721E-04     0.0000000    
 -6.68785709E-04     0.0000000    
 -6.67285698E-04     0.0000000    
 -6.65785687E-04     0.0000000    
 -6.64285733E-04     0.0000000    
 -6.62785722E-04     0.0000000    
 -6.61285711E-04     0.0000000    
 -6.59785699E-04     0.0000000    
 -6.58285688E-04     0.0000000    
 -6.56785734E-04     0.0000000    
 -6.55285723E-04     0.0000000    
 -6.53785712E-04     0.0000000    
 -6.52285700E-04     0.0000000    
 -6.50785689E-04     0.0000000    
 -6.49285736E-04     0.0000000    
 -6.47785724E-04     0.0000000    
 -6.46285713E-04     0.0000000    
 -6.44785701E-04     0.0000000    
 -6.43285690E-04     0.0000000    
 -6.41785737E-04     0.0000000    
 -6.40285725E-04     0.0000000    
 -6.38785714E-04     0.0000000    
 -6.37285702E-04     0.0000000    
 -6.35785691E-04     0.0000000    
 -6.34285738E-04     0.0000000    
 -6.32785726E-04     0.0000000    
 -6.31285715E-04     0.0000000    
 -6.29785703E-04     0.0000000    
 -6.28285692E-04     0.0000000    
 -6.26785739E-04     0.0000000    
 -6.25285727E-04     0.0000000    
 -6.23785716E-04     0.0000000    
 -6.22285705E-04     0.0000000    
 -6.20785693E-04     0.0000000    
 -6.19285740E-04     0.0000000    
 -6.17785729E-04     0.0000000    
 -6.16285717E-04     0.0000000    
 -6.14785706E-04     0.0000000    
 -6.13285694E-04     0.0000000    
 -6.11785741E-04     0.0000000    
 -6.10285730E-04     0.0000000    
 -6.08785718E-04     0.0000000    
 -6.07285707E-04     0.0000000    
 -6.05785695E-04     0.0000000    
 -6.04285742E-04     0.0000000    
 -6.02785731E-04     0.0000000    
 -6.01285719E-04     0.0000000    
 -5.99785708E-04     0.0000000    
 -5.98285696E-04     0.0000000    
 -5.96785743E-04     0.0000000    
 -5.95285732E-04     0.0000000    
 -5.93785720E-04     0.0000000    
 -5.92285709E-04     0.0000000    
 -5.90785698E-04     0.0000000    
 -5.89285686E-04     0.0000000    
 -5.87785733E-04     0.0000000    
 -5.86285722E-04     0.0000000    
 -5.84785710E-04     0.0000000    
 -5.83285699E-04     0.0000000    
 -5.81785687E-04     0.0000000    
 -5.80285734E-04     0.0000000    
 -5.78785723E-04     0.0000000    
 -5.77285711E-04     0.0000000    
 -5.75785700E-04     0.0000000    
 -5.74285688E-04     0.0000000    
 -5.72785735E-04     0.0000000    
 -5.71285724E-04     0.0000000    
 -5.69785712E-04     0.0000000    
 -5.68285701E-04     0.0000000    
 -5.66785689E-04     0.0000000    
 -5.65285736E-04     0.0000000    
 -5.63785725E-04     0.0000000    
 -5.62285713E-04     0.0000000    
 -5.60785702E-04     0.0000000    
 -5.59285691E-04     0.0000000    
 -5.57785737E-04     0.0000000    
 -5.56285726E-04     0.0000000    
 -5.54785714E-04     0.0000000    
 -5.53285703E-04     0.0000000    
 -5.51785692E-04     0.0000000    
 -5.50285738E-04     0.0000000    
 -5.48785727E-04     0.0000000    
 -5.47285716E-04     0.0000000    
 -5.45785704E-04     0.0000000    
 -5.44285693E-04     0.0000000    
 -5.42785740E-04     0.0000000    
 -5.41285728E-04     0.0000000    
 -5.39785717E-04     0.0000000    
 -5.38285705E-04     0.0000000    
 -5.36785694E-04     0.0000000    
 -5.35285741E-04     0.0000000    
 -5.33785729E-04     0.0000000    
 -5.32285718E-04     0.0000000    
 -5.30785706E-04     0.0000000    
 -5.29285695E-04     0.0000000    
 -5.27785742E-04     0.0000000    
 -5.26285730E-04     0.0000000    
 -5.24785719E-04     0.0000000    
 -5.23285707E-04     0.0000000    
 -5.21785696E-04     0.0000000    
 -5.20285743E-04     0.0000000    
 -5.18785731E-04     0.0000000    
 -5.17285720E-04     0.0000000    
 -5.15785709E-04     0.0000000    
 -5.14285697E-04     0.0000000    
 -5.12785686E-04     0.0000000    
 -5.11285733E-04     0.0000000    
 -5.09785721E-04     0.0000000    
 -5.08285710E-04     0.0000000    
 -5.06785698E-04     0.0000000    
 -5.05285687E-04     0.0000000    
 -5.03785734E-04     0.0000000    
 -5.02285722E-04     0.0000000    
 -5.00785711E-04     0.0000000    
 -4.99285699E-04     0.0000000    
 -4.97785688E-04     0.0000000    
 -4.96285735E-04     0.0000000    
 -4.94785723E-04     0.0000000    
 -4.93285712E-04     0.0000000    
 -4.91785700E-04     0.0000000    
 -4.90285689E-04     0.0000000    
 -4.88785736E-04     0.0000000    
 -4.87285724E-04     0.0000000    
 -4.85785713E-04     0.0000000    
 -4.84285702E-04     0.0000000    
 -4.82785719E-04     0.0000000    
 -4.81285708E-04     0.0000000    
 -4.79785725E-04     0.0000000    
 -4.78285714E-04     0.0000000    
 -4.76785703E-04     0.0000000    
 -4.75285720E-04     0.0000000    
 -4.73785709E-04     0.0000000    
 -4.72285727E-04     0.0000000    
 -4.70785715E-04     0.0000000    
 -4.69285704E-04     0.0000000    
 -4.67785721E-04     0.0000000    
 -4.66285710E-04     0.0000000    
 -4.64785728E-04     0.0000000    
 -4.63285716E-04     0.0000000    
 -4.61785705E-04     0.0000000    
 -4.60285723E-04     0.0000000    
 -4.58785711E-04     0.0000000    
 -4.57285729E-04     0.0000000    
 -4.55785717E-04     0.0000000    
 -4.54285706E-04     0.0000000    
 -4.52785724E-04     0.0000000    
 -4.51285712E-04     0.0000000    
 -4.49785701E-04     0.0000000    
 -4.48285718E-04     0.0000000    
 -4.46785707E-04     0.0000000    
 -4.45285725E-04     0.0000000    
 -4.43785713E-04     0.0000000    
 -4.42285702E-04     0.0000000    
 -4.40785720E-04     0.0000000    
 -4.39285708E-04     0.0000000    
 -4.37785726E-04     0.0000000    
 -4.36285714E-04     0.0000000    
 -4.34785703E-04     0.0000000    
 -4.33285721E-04     0.0000000    
 -4.31785709E-04     0.0000000    
 -4.30285727E-04     0.0000000    