 -1.71428570E-03     0.0000000    
 -1.71278568E-03     0.0000000    
 -1.71128567E-03     0.0000000    
 -1.70978566E-03     0.0000000    
 -1.70828577E-03     0.0000000    
 -1.70678576E-03     0.0000000    
 -1.70528574E-03     0.0000000    
 -1.70378573E-03     0.0000000    
 -1.70228572E-03     0.0000000    
 -1.70078571E-03     0.0000000    
 -1.69928570E-03     0.0000000    
 -1.69778569E-03     0.0000000    
 -1.69628568E-03     0.0000000    
 -1.69478566E-03     0.0000000    
 -1.69328577E-03     0.0000000    
 -1.69178576E-03     0.0000000    
 -1.69028575E-03     0.0000000    
 -1.68878573E-03     0.0000000    
 -1.68728572E-03     0.0000000    
 -1.68578571E-03     0.0000000    
 -1.68428570E-03     0.0000000    
 -1.68278569E-03     0.0000000    
 -1.68128568E-03     0.0000000    
 -1.67978567E-03     0.0000000    
 -1.67828577E-03     0.0000000    
 -1.67678576E-03     0.0000000    
 -1.67528575E-03     0.0000000    
 -1.67378574E-03     0.0000000    
 -1.67228573E-03     0.0000000    
 -1.67078571E-03     0.0000000    
 -1.66928570E-03     0.0000000    
 -1.66778569E-03     0.0000000    
 -1.66628568E-03     0.0000000    
 -1.66478567E-03     0.0000000    
 -1.66328566E-03     0.0000000    
 -1.66178576E-03     0.0000000    
 -1.66028575E-03     0.0000000    
 -1.65878574E-03     0.0000000    
 -1.65728573E-03     0.0000000    
 -1.65578572E-03     0.0000000    
 -1.65428570E-03     0.0000000    
 -1.65278569E-03     0.0000000    
 -1.65128568E-03     0.0000000    
 -1.64978567E-03     0.0000000    
 -1.64828566E-03     0.0000000    
 -1.64678576E-03     0.0000000    
 -1.64528575E-03     0.0000000    
 -1.64378574E-03     0.0000000    
 -1.64228573E-03     0.0000000    
 -1.64078572E-03     0.0000000    
 -1.63928571E-03     0.0000000    
 -1.63778570E-03     0.0000000    
 -1.63628568E-03     0.0000000    
 -1.63478567E-03     0.0000000    
 -1.63328566E-03     0.0000000    
 -1.63178577E-03     0.0000000    
 -1.63028575E-03     0.0000000    
 -1.62878574E-03     0.0000000    
 -1.62728573E-03     0.0000000    
 -1.62578572E-03     0.0000000    
 -1.62428571E-03     0.0000000    
 -1.62278570E-03     0.0000000    
 -1.62128569E-03     0.0000000    
 -1.61978567E-03     0.0000000    
 -1.61828566E-03     0.0000000    
 -1.61678577E-03     0.0000000    
 -1.61528576E-03     0.0000000    
 -1.61378575E-03     0.0000000    
 -1.61228573E-03     0.0000000    
 -1.61078572E-03     0.0000000    
 -1.60928571E-03     0.0000000    
 -1.60778570E-03     0.0000000    
 -1.60628569E-03     0.0000000    
 -1.60478568E-03     0.0000000    
 -1.60328567E-03     0.0000000    
 -1.60178577E-03     0.0000000    
 -1.60028576E-03     0.0000000    
 -1.59878575E-03     0.0000000    
 -1.59728574E-03     0.0000000    
 -1.59578572E-03     0.0000000    
 -1.59428571E-03     0.0000000    
 -1.59278570E-03     0.0000000    
 -1.59128569E-03     0.0000000    
 -1.58978568E-03     0.0000000    
 -1.58828567E-03     0.0000000    
 -1.58678566E-03     0.0000000    
 -1.58528576E-03     0.0000000    
 -1.58378575E-03     0.0000000    
 -1.58228574E-03     0.0000000    
 -1.58078573E-03     0.0000000    
 -1.57928572E-03     0.0000000    
 -1.57778570E-03     0.0000000    
 -1.57628569E-03     0.0000000    
 -1.57478568E-03     0.0000000    
 -1.57328567E-03     0.0000000    
 -1.57178566E-03     0.0000000    
 -1.57028576E-03     0.0000000    
 -1.56878575E-03     0.0000000    
 -1.56728574E-03     0.0000000    
 -1.56578573E-03     0.0000000    
 -1.56428572E-03     0.0000000    
 -1.56278571E-03     0.0000000    
 -1.56128570E-03     0.0000000    
 -1.55978568E-03     0.0000000    
 -1.55828567E-03     0.0000000    
 -1.55678566E-03     0.0000000    
 -1.55528577E-03     0.0000000    
 -1.55378575E-03     0.0000000    
 -1.55228574E-03     0.0000000    
 -1.55078573E-03     0.0000000    
 -1.54928572E-03     0.0000000    
 -1.54778571E-03     0.0000000    
 -1.54628570E-03     0.0000000    
 -1.54478569E-03     0.0000000    
 -1.54328567E-03     0.0000000    
 -1.54178566E-03     0.0000000    
 -1.54028577E-03     0.0000000    
 -1.53878576E-03     0.0000000    
 -1.53728575E-03     0.0000000    
 -1.53578573E-03     0.0000000    
 -1.53428572E-03     0.0000000    
 -1.53278571E-03     0.0000000    
 -1.53128570E-03     0.0000000    
 -1.52978569E-03     0.0000000    
 -1.52828568E-03     0.0000000    
 -1.52678567E-03     0.0000000    
 -1.52528577E-03     0.0000000    
 -1.52378576E-03     0.0000000    
 -1.52228575E-03     0.0000000    
 -1.52078574E-03     0.0000000    
 -1.51928572E-03     0.0000000    
 -1.51778571E-03     0.0000000    
 -1.51628570E-03     0.0000000    
 -1.51478569E-03     0.0000000    
 -1.51328568E-03     0.0000000    
 -1.51178567E-03     0.0000000    
 -1.51028577E-03     0.0000000    
 -1.50878576E-03     0.0000000    
 -1.50728575E-03     0.0000000    
 -1.50578574E-03     0.0000000    
 -1.50428573E-03     0.0000000    
 -1.50278572E-03     0.0000000    
 -1.50128570E-03     0.0000000    
 -1.49978569E-03     0.0000000    
 -1.49828568E-03     0.0000000    
 -1.49678567E-03     0.0000000    
 -1.49528566E-03     0.0000000    
 -1.49378576E-03     0.0000000    
 -1.49228575E-03     0.0000000    
 -1.49078574E-03     0.0000000    
 -1.48928573E-03     0.0000000    
 -1.48778572E-03     0.0000000    
 -1.48628571E-03     0.0000000    
 -1.48478569E-03     0.0000000    
 -1.48328568E-03     0.0000000    
 -1.48178567E-03     0.0000000    
 -1.48028566E-03     0.0000000    
 -1.47878577E-03     0.0000000    
 -1.47728575E-03     0.0000000    
 -1.47578574E-03     0.0000000    
 -1.47428573E-03     0.0000000    
 -1.47278572E-03     0.0000000    
 -1.47128571E-03     0.0000000    
 -1.46978570E-03     0.0000000    
 -1.46828569E-03     0.0000000    
 -1.46678567E-03     0.0000000    
 -1.46528566E-03     0.0000000    
 -1.46378577E-03     0.0000000    
 -1.46228576E-03     0.0000000    
 -1.46078574E-03     0.0000000    
 -1.45928573E-03     0.0000000    
 -1.45778572E-03     0.0000000    
 -1.45628571E-03     0.0000000    
 -1.45478570E-03     0.0000000    
 -1.45328569E-03     0.0000000    
 -1.45178568E-03     0.0000000    
 -1.45028566E-03     0.0000000    
 -1.44878577E-03     0.0000000    
 -1.44728576E-03     0.0000000    
 -1.44578575E-03     0.0000000    
 -1.44428574E-03     0.0000000    
 -1.44278572E-03     0.0000000    
 -1.44128571E-03     0.0000000    
 -1.43978570E-03     0.0000000    
 -1.43828569E-03     0.0000000    
 -1.43678568E-03     0.0000000    
 -1.43528567E-03     0.0000000    
 -1.43378577E-03     0.0000000    
 -1.43228576E-03     0.0000000    
 -1.43078575E-03     0.0000000    
 -1.42928574E-03     0.0000000    
 -1.42778573E-03     0.0000000    
 -1.42628571E-03     0.0000000    
 -1.42478570E-03     0.0000000    
 -1.42328569E-03     0.0000000    
 -1.42178568E-03     0.0000000    
 -1.42028567E-03     0.0000000    
 -1.41878566E-03     0.0000000    
 -1.41728576E-03     0.0000000    
 -1.41578575E-03     0.0000000    
 -1.41428574E-03     0.0000000    
 -1.41278573E-03     0.0000000    
 -1.41128572E-03     0.0000000    
 -1.40978571E-03     0.0000000    
 -1.40828569E-03     0.0000000    
 -1.40678568E-03     0.0000000    
 -1.40528567E-03     0.0000000    
 -1.40378566E-03     0.0000000    
 -1.40228576E-03     0.0000000    
 -1.40078575E-03     0.0000000    
 -1.39928574E-03     0.0000000    
 -1.39778573E-03     0.0000000    
 -1.39628572E-03     0.0000000    
 -1.39478571E-03     0.0000000    
 -1.39328570E-03     0.0000000    
 -1.39178568E-03     0.0000000    
 -1.39028567E-03     0.0000000    
 -1.38878566E-03     0.0000000    
 -1.38728577E-03     0.0000000    
 -1.38578576E-03     0.0000000    
 -1.38428574E-03     0.0000000    
 -1.38278573E-03     0.0000000    
 -1.38128572E-03     0.0000000    
 -1.37978571E-03     0.0000000    
 -1.37828570E-03     0.0000000    
 -1.37678569E-03     0.0000000    
 -1.37528568E-03     0.0000000    
 -1.37378566E-03     0.0000000    
 -1.37228577E-03     0.0000000    
 -1.37078576E-03     0.0000000    
 -1.36928575E-03     0.0000000    
 -1.36778574E-03     0.0000000    
 -1.36628572E-03     0.0000000    
 -1.36478571E-03     0.0000000    
 -1.36328570E-03     0.0000000    
 -1.36178569E-03     0.0000000    
 -1.36028568E-03     0.0000000    
 -1.35878567E-03     0.0000000    
 -1.35728577E-03     0.0000000    
 -1.35578576E-03     0.0000000    
 -1.35428575E-03     0.0000000    
 -1.35278574E-03     0.0000000    
 -1.35128573E-03     0.0000000    
 -1.34978571E-03     0.0000000    
 -1.34828570E-03     0.0000000    
 -1.34678569E-03     0.0000000    
 -1.34528568E-03     0.0000000    
 -1.34378567E-03     0.0000000    
 -1.34228566E-03     0.0000000    
 -1.34078576E-03     0.0000000    
 -1.33928575E-03     0.0000000    
 -1.33778574E-03     0.0000000    
 -1.33628573E-03     0.0000000    
 -1.33478572E-03     0.0000000    
 -1.33328571E-03     0.0000000    
 -1.33178569E-03     0.0000000    
 -1.33028568E-03     0.0000000    
 -1.32878567E-03     0.0000000    
 -1.32728566E-03     0.0000000    
 -1.32578576E-03     0.0000000    
 -1.32428575E-03     0.0000000    
 -1.32278574E-03     0.0000000    
 -1.32128573E-03     0.0000000    
 -1.31978572E-03     0.0000000    
 -1.31828571E-03     0.0000000    
 -1.31678570E-03     0.0000000    
 -1.31528568E-03     0.0000000    
 -1.31378567E-03     0.0000000    
 -1.31228566E-03     0.0000000    
 -1.31078577E-03     0.0000000    
 -1.30928576E-03     0.0000000    
 -1.30778574E-03     0.0000000    
 -1.30628573E-03     0.0000000    
 -1.30478572E-03     0.0000000    
 -1.30328571E-03     0.0000000    
 -1.30178570E-03     0.0000000    
 -1.30028569E-03     0.0000000    
 -1.29878568E-03     0.0000000    
 -1.29728566E-03     0.0000000    
 -1.29578577E-03     0.0000000    
 -1.29428576E-03     0.0000000    
 -1.29278575E-03     0.0000000    
 -1.29128573E-03     0.0000000    
 -1.28978572E-03     0.0000000    
 -1.28828571E-03     0.0000000    
 -1.28678570E-03     0.0000000    
 -1.28528569E-03     0.0000000    
 -1.28378568E-03     0.0000000    
 -1.28228567E-03     0.0000000    
 -1.28078577E-03     0.0000000    
 -1.27928576E-03     0.0000000    
 -1.27778575E-03     0.0000000    
 -1.27628574E-03     0.0000000    
 -1.27478573E-03     0.0000000    
 -1.27328571E-03     0.0000000    
 -1.27178570E-03     0.0000000    
 -1.27028569E-03     0.0000000    
 -1.26878568E-03     0.0000000    
 -1.26728567E-03     0.0000000    
 -1.26578566E-03     0.0000000    
 -1.26428576E-03     0.0000000    
 -1.26278575E-03     0.0000000    
 -1.26128574E-03     0.0000000    
 -1.25978573E-03     0.0000000    
 -1.25828572E-03     0.0000000    
 -1.25678570E-03     0.0000000    
 -1.25528569E-03     0.0000000    
 -1.25378568E-03     0.0000000    
 -1.25228567E-03     0.0000000    
 -1.25078566E-03     0.0000000    
 -1.24928576E-03     0.0000000    
 -1.24778575E-03     0.0000000    
 -1.24628574E-03     0.0000000    
 -1.24478573E-03     0.0000000    
 -1.24328572E-03     0.0000000    
 -1.24178571E-03     0.0000000    
 -1.24028570E-03     0.0000000    
 -1.23878568E-03     0.0000000    
 -1.23728567E-03     0.0000000    
 -1.23578566E-03     0.0000000    
 -1.23428577E-03     0.0000000    
 -1.23278575E-03     0.0000000    
 -1.23128574E-03     0.0000000    
 -1.22978573E-03     0.0000000    
 -1.22828572E-03     0.0000000    
 -1.22678571E-03     0.0000000    
 -1.22528570E-03     0.0000000    
 -1.22378569E-03     0.0000000    
 -1.22228567E-03     0.0000000    
 -1.22078566E-03     0.0000000    
 -1.21928577E-03     0.0000000    
 -1.21778576E-03     0.0000000    
 -1.21628575E-03     0.0000000    
 -1.21478573E-03     0.0000000    
 -1.21328572E-03     0.0000000    
 -1.21178571E-03     0.0000000    
 -1.21028570E-03     0.0000000    
 -1.20878569E-03     0.0000000    
 -1.20728568E-03     0.0000000    
 -1.20578567E-03     0.0000000    
 -1.20428577E-03     0.0000000    
 -1.20278576E-03     0.0000000    
 -1.20128575E-03     0.0000000    
 -1.19978574E-03     0.0000000    
 -1.19828572E-03     0.0000000    
 -1.19678571E-03   -1.22598944E-38
 -1.19528570E-03   -2.66760284E-38
 -1.19378569E-03   -4.33722166E-38
 -1.19228568E-03   -6.24532998E-38
 -1.19078567E-03   -8.40060717E-38
 -1.18928566E-03   -1.08097318E-37
 -1.18778576E-03   -1.34755037E-37
 -1.18628575E-03   -1.63969633E-37
 -1.18478574E-03   -1.95688685E-37
 -1.18328573E-03   -2.29814047E-37
 -1.18178572E-03   -2.66279779E-37
 -1.18028570E-03   -3.04970616E-37
 -1.17878569E-03   -3.45705533E-37
 -1.17728568E-03   -3.88232228E-37
 -1.17578567E-03   -4.32210131E-37
 -1.17428566E-03   -4.77205174E-37
 -1.17278576E-03   -5.22699170E-37
 -1.17128575E-03   -5.68058865E-37
 -1.16978574E-03   -6.12525226E-37
 -1.16828573E-03   -6.55205953E-37
 -1.16678572E-03   -6.95068163E-37
 -1.16528571E-03   -7.30918893E-37
 -1.16378570E-03   -7.61399041E-37
 -1.16228568E-03   -7.84961841E-37
 -1.16078567E-03   -7.99863585E-37
 -1.15928566E-03   -8.04154114E-37
 -1.15778577E-03   -7.95667761E-37
 -1.15628575E-03   -7.72015547E-37
 -1.15478574E-03   -7.30579488E-37
 -1.15328573E-03   -6.68509634E-37
 -1.15178572E-03   -5.82723801E-37
 -1.15028571E-03   -4.69911203E-37
 -1.14878570E-03   -3.26519470E-37
 -1.14728569E-03   -1.48796922E-37
 -1.14578567E-03    6.71852885E-38
 -1.14428566E-03    3.25549614E-37
 -1.14278577E-03    6.30531934E-37
 -1.14128576E-03    9.86478694E-37
 -1.13978575E-03    1.39778683E-36
 -1.13828573E-03    1.86883567E-36
 -1.13678572E-03    2.40394191E-36
 -1.13528571E-03    3.00726830E-36
 -1.13378570E-03    3.68273505E-36
 -1.13228569E-03    4.43391605E-36
 -1.13078568E-03    5.26392777E-36
 -1.12928567E-03    6.17529427E-36
 -1.12778577E-03    7.16980238E-36
 -1.12628576E-03    8.24834141E-36
 -1.12478575E-03    9.41072624E-36
 -1.12328574E-03    1.06555083E-35
 -1.12178572E-03    1.19797676E-35
 -1.12028571E-03    1.33788935E-35
 -1.11878570E-03    1.48463459E-35
 -1.11728569E-03    1.63734094E-35
 -1.11578568E-03    1.79489320E-35
 -1.11428567E-03    1.95590522E-35
 -1.11278577E-03    2.11869182E-35
 -1.11128576E-03    2.28124065E-35
 -1.10978575E-03    2.44118293E-35
 -1.10828574E-03    2.59576502E-35
 -1.10678573E-03    2.74181991E-35
 -1.10528572E-03    2.87574046E-35
 -1.10378570E-03    2.99345290E-35
 -1.10228569E-03    3.09039416E-35
 -1.10078568E-03    3.16149091E-35
 -1.09928567E-03    3.20114261E-35
 -1.09778566E-03    3.20320862E-35
 -1.09628576E-03    3.16100160E-35
 -1.09478575E-03    3.06728663E-35
 -1.09328574E-03    2.91428726E-35
 -1.09178573E-03    2.69370127E-35
 -1.09028572E-03    2.39672493E-35
 -1.08878571E-03    2.01408961E-35
 -1.08728569E-03    1.53610967E-35
 -1.08578568E-03    9.52744198E-36
 -1.08428567E-03    2.53673801E-36
 -1.08278566E-03   -5.71606118E-36
 -1.08128577E-03   -1.53367417E-35
 -1.07978575E-03   -2.64305313E-35
 -1.07828574E-03   -3.91005954E-35
 -1.07678573E-03   -5.34463073E-35
 -1.07528572E-03   -6.95613074E-35
 -1.07378571E-03   -8.75312985E-35
 -1.07228570E-03   -1.07431620E-34
 -1.07078569E-03   -1.29324548E-34
 -1.06928567E-03   -1.53256350E-34
 -1.06778566E-03   -1.79254049E-34
 -1.06628577E-03   -2.07321985E-34
 -1.06478576E-03   -2.37438035E-34
 -1.06328574E-03   -2.69549671E-34
 -1.06178573E-03   -3.03569763E-34
 -1.06028572E-03   -3.39372107E-34
 -1.05878571E-03   -3.76786875E-34
 -1.05728570E-03   -4.15595798E-34
 -1.05578569E-03   -4.55527203E-34
 -1.05428568E-03   -4.96251195E-34
 -1.05278566E-03   -5.37374533E-34
 -1.05128577E-03   -5.78435699E-34
 -1.04978576E-03   -6.18899980E-34
 -1.04828575E-03   -6.58154833E-34
 -1.04678574E-03   -6.95505431E-34
 -1.04528572E-03   -7.30170668E-34
 -1.04378571E-03   -7.61279391E-34
 -1.04228570E-03   -7.87867650E-34
 -1.04078569E-03   -8.08876030E-34
 -1.03928568E-03   -8.23148552E-34
 -1.03778567E-03   -8.29432028E-34
 -1.03628577E-03   -8.26376661E-34
 -1.03478576E-03   -8.12538246E-34
 -1.03328575E-03   -7.86381384E-34
 -1.03178574E-03   -7.46284629E-34
 -1.03028573E-03   -6.90547508E-34
 -1.02878571E-03   -6.17399296E-34
 -1.02728570E-03   -5.25010261E-34
 -1.02578569E-03   -4.11505124E-34
 -1.02428568E-03   -2.74979100E-34
 -1.02278567E-03   -1.13516674E-34
 -1.02128566E-03    7.47866266E-35
 -1.01978576E-03    2.91799506E-34
 -1.01828575E-03    5.39326910E-34
 -1.01678574E-03    8.19078770E-34
 -1.01528573E-03    1.13263509E-33
 -1.01378572E-03    1.48140803E-33
 -1.01228571E-03    1.86659981E-33
 -1.01078569E-03    2.28915733E-33
 -1.00928568E-03    2.74972373E-33
 -1.00778567E-03    3.24858590E-33
 -1.00628566E-03    3.78561821E-33
 -1.00478576E-03    4.36022520E-33
 -1.00328575E-03    4.97127875E-33
 -1.00178574E-03    5.61705494E-33
 -1.00028573E-03    6.29516677E-33
 -9.98785719E-04    7.00249846E-33
 -9.97285708E-04    7.73513339E-33
 -9.95785696E-04    8.48828805E-33
 -9.94285685E-04    9.25624072E-33
 -9.92785674E-04    1.00322654E-32
 -9.91285662E-04    1.08085655E-32
 -9.89785767E-04    1.15762103E-32
 -9.88285756E-04    1.23250788E-32
 -9.86785744E-04    1.30438069E-32
 -9.85285733E-04    1.37197412E-32
 -9.83785721E-04    1.43389020E-32
 -9.82285710E-04    1.48859594E-32
 -9.80785699E-04    1.53442127E-32
 -9.79285687E-04    1.56955929E-32
 -9.77785676E-04    1.59206766E-32
 -9.76285723E-04    1.59987147E-32
 -9.74785711E-04    1.59076844E-32
 -9.73285700E-04    1.56243609E-32
 -9.71785688E-04    1.51244084E-32
 -9.70285735E-04    1.43825069E-32
 -9.68785724E-04    1.33724943E-32
 -9.67285712E-04    1.20675442E-32
 -9.65785701E-04    1.04403757E-32
 -9.64285689E-04    8.46349394E-33
 -9.62785736E-04    6.10946438E-33
 -9.61285725E-04    3.35122676E-33
 -9.59785713E-04    1.62444698E-34
 -9.58285702E-04   -3.48210741E-33
 -9.56785691E-04   -7.60611481E-33
 -9.55285737E-04   -1.22312553E-32
 -9.53785726E-04   -1.73766923E-32
 -9.52285714E-04   -2.30585280E-32
 -9.50785703E-04   -2.92892167E-32
 -9.49285692E-04   -3.60769443E-32
 -9.47785738E-04   -4.34249683E-32
 -9.46285727E-04   -5.13309290E-32
 -9.44785716E-04   -5.97861188E-32
 -9.43285704E-04   -6.87747538E-32
 -9.41785693E-04   -7.82732007E-32
 -9.40285739E-04   -8.82491981E-32
 -9.38785728E-04   -9.86610511E-32
 -9.37285717E-04   -1.09456874E-31
 -9.35785705E-04   -1.20573770E-31
 -9.34285694E-04   -1.31937110E-31
 -9.32785741E-04   -1.43459740E-31
 -9.31285729E-04   -1.55041322E-31
 -9.29785718E-04   -1.66567655E-31
 -9.28285706E-04   -1.77910130E-31
 -9.26785695E-04   -1.88925158E-31
 -9.25285742E-04   -1.99453814E-31
 -9.23785730E-04   -2.09321502E-31
 -9.22285719E-04   -2.18337755E-31
 -9.20785707E-04   -2.26296228E-31
 -9.19285696E-04   -2.32974799E-31
 -9.17785743E-04   -2.38135854E-31
 -9.16285731E-04   -2.41526849E-31
 -9.14785720E-04   -2.42880948E-31
 -9.13285709E-04   -2.41917983E-31
 -9.11785697E-04   -2.38345727E-31
 -9.10285686E-04   -2.31861324E-31
 -9.08785732E-04   -2.22153033E-31
 -9.07285721E-04   -2.08902391E-31
 -9.05785710E-04   -1.91786523E-31
 -9.04285698E-04   -1.70480970E-31
 -9.02785687E-04   -1.44662741E-31
 -9.01285734E-04   -1.14013783E-31
 -8.99785722E-04   -7.82248115E-32
 -8.98285711E-04   -3.69995310E-32
 -8.96785699E-04    9.94077883E-33
 -8.95285688E-04    6.28523076E-32
 -8.93785735E-04    1.21963369E-31
 -8.92285723E-04    1.87468709E-31
 -8.90785712E-04    2.59523433E-31
 -8.89285700E-04    3.38236650E-31
 -8.87785689E-04    4.23664762E-31
 -8.86285736E-04    5.15804523E-31
 -8.84785724E-04    6.14585874E-31
 -8.83285713E-04    7.19864512E-31
 -8.81785701E-04    8.31414365E-31
 -8.80285690E-04    9.48920072E-31
 -8.78785737E-04    1.07196913E-30
 -8.77285725E-04    1.20004469E-30
 -8.75785714E-04    1.33251764E-30
 -8.74285703E-04    1.46863998E-30
 -8.72785691E-04    1.60753724E-30
 -8.71285738E-04    1.74820291E-30
 -8.69785727E-04    1.88949150E-30
 -8.68285715E-04    2.03011391E-30
 -8.66785704E-04    2.16863304E-30
 -8.65285692E-04    2.30345980E-30
 -8.63785739E-04    2.43285069E-30
 -8.62285728E-04    2.55490669E-30
 -8.60785716E-04    2.66757322E-30
 -8.59285705E-04    2.76864147E-30
 -8.57785693E-04    2.85575162E-30
 -8.56285740E-04    2.92639826E-30
 -8.54785729E-04    2.97793664E-30
 -8.53285717E-04    3.00759201E-30
 -8.51785706E-04    3.01247116E-30
 -8.50285694E-04    2.98957591E-30
 -8.48785741E-04    2.93581933E-30
 -8.47285730E-04    2.84804451E-30
 -8.45785718E-04    2.72304677E-30
 -8.44285707E-04    2.55759791E-30
 -8.42785696E-04    2.34847371E-30
 -8.41285742E-04    2.09248470E-30
 -8.39785731E-04    1.78650992E-30
 -8.38285720E-04    1.42753360E-30
 -8.36785708E-04    1.01268519E-30
 -8.35285697E-04    5.39282249E-31
 -8.33785685E-04    4.87661729E-33
 -8.32285732E-04   -5.92696759E-31
 -8.30785721E-04   -1.25526810E-30
 -8.29285709E-04   -1.98427866E-30
 -8.27785698E-04   -2.78072405E-30
 -8.26285686E-04   -3.64509513E-30
 -8.24785733E-04   -4.57731783E-30
 -8.23285722E-04   -5.57669115E-30
 -8.21785710E-04   -6.64182445E-30
 -8.20285699E-04   -7.77057362E-30
 -8.18785687E-04   -8.95997680E-30
 -8.17285734E-04   -1.02061934E-29
 -8.15785723E-04   -1.15044402E-29
 -8.14285711E-04   -1.28489334E-29
 -8.12785700E-04   -1.42328284E-29
 -8.11285689E-04   -1.56481703E-29
 -8.09785735E-04   -1.70858409E-29
 -8.08285724E-04   -1.85355139E-29
 -8.06785712E-04   -1.99856203E-29
 -8.05285701E-04   -2.14233119E-29
 -8.03785690E-04   -2.28344423E-29
 -8.02285736E-04   -2.42035498E-29
 -8.00785725E-04   -2.55138562E-29
 -7.99285714E-04   -2.67472729E-29
 -7.97785702E-04   -2.78844202E-29
 -7.96285691E-04   -2.89046575E-29
 -7.94785738E-04   -2.97861406E-29
 -7.93285726E-04   -3.05058727E-29
 -7.91785715E-04   -3.10397976E-29
 -7.90285703E-04   -3.13628814E-29
 -7.88785692E-04   -3.14492473E-29
 -7.87285739E-04   -3.12722965E-29
 -7.85785727E-04   -3.08048733E-29
 -7.84285716E-04   -3.00194400E-29
 -7.82785704E-04   -2.88882751E-29
 -7.81285693E-04   -2.73836935E-29
 -7.79785740E-04   -2.54782927E-29
 -7.78285728E-04   -2.31452137E-29
 -7.76785717E-04   -2.03584367E-29
 -7.75285705E-04   -1.70930827E-29
 -7.73785694E-04   -1.33257545E-29
 -7.72285741E-04   -9.03488118E-30
 -7.70785729E-04   -4.20109794E-30
 -7.69285718E-04    1.19236523E-30
 -7.67785707E-04    7.15927292E-30
 -7.66285695E-04    1.37099580E-29
 -7.64785742E-04    2.08508864E-29
 -7.63285730E-04    2.85842008E-29
 -7.61785719E-04    3.69072726E-29
 -7.60285708E-04    4.58122250E-29
 -7.58785696E-04    5.52854802E-29
 -7.57285743E-04    6.53072853E-29
 -7.55785732E-04    7.58512583E-29
 -7.54285720E-04    8.68839480E-29
 -7.52785709E-04    9.83643863E-29
 -7.51285697E-04    1.10243685E-28
 -7.49785686E-04    1.22464637E-28
 -7.48285733E-04    1.34961395E-28
 -7.46785721E-04    1.47659099E-28
 -7.45285710E-04    1.60473647E-28
 -7.43785698E-04    1.73311451E-28
 -7.42285687E-04    1.86069268E-28
 -7.40785734E-04    1.98634095E-28
 -7.39285722E-04    2.10883142E-28
 -7.37785711E-04    2.22683844E-28
 -7.36285700E-04    2.33894032E-28
 -7.34785688E-04    2.44362136E-28
 -7.33285735E-04    2.53927484E-28
 -7.31785723E-04    2.62420714E-28
 -7.30285712E-04    2.69664329E-28
 -7.28785701E-04    2.75473367E-28
 -7.27285689E-04    2.79656102E-28
 -7.25785736E-04    2.82015029E-28
 -7.24285725E-04    2.82347806E-28
 -7.22785713E-04    2.80448526E-28
 -7.21285702E-04    2.76108924E-28
 -7.19785690E-04    2.69119893E-28
 -7.18285737E-04    2.59273095E-28
 -7.16785726E-04    2.46362623E-28
 -7.15285714E-04    2.30186978E-28
 -7.13785703E-04    2.10551039E-28
 -7.12285691E-04    1.87268244E-28
 -7.10785738E-04    1.60162898E-28
 -7.09285727E-04    1.29072599E-28
 -7.07785715E-04    9.38507889E-29
 -7.06285704E-04    5.43694236E-29
 -7.04785693E-04    1.05217187E-29
 -7.03285739E-04   -3.77749793E-29
 -7.01785728E-04   -9.05762746E-29
 -7.00285716E-04   -1.47907736E-28
 -6.98785705E-04   -2.09761890E-28
 -6.97285694E-04   -2.76095154E-28
 -6.95785740E-04   -3.46824811E-28
 -6.94285729E-04   -4.21826036E-28
 -6.92785718E-04   -5.00928890E-28
 -6.91285706E-04   -5.83915478E-28
 -6.89785695E-04   -6.70517181E-28
 -6.88285741E-04   -7.60412031E-28
 -6.86785730E-04   -8.53222306E-28
 -6.85285719E-04   -9.48512216E-28
 -6.83785707E-04   -1.04578603E-27
 -6.82285696E-04   -1.14448628E-27
 -6.80785743E-04   -1.24399243E-27
 -6.79285731E-04   -1.34361983E-27
 -6.77785720E-04   -1.44261917E-27
 -6.76285708E-04   -1.54017629E-27
 -6.74785697E-04   -1.63541246E-27
 -6.73285685E-04   -1.72738506E-27
 -6.71785732E-04   -1.81508940E-27
 -6.70285721E-04   -1.89746008E-27
 -6.68785709E-04   -1.97337427E-27
 -6.67285698E-04   -2.04165465E-27
 -6.65785687E-04   -2.10107324E-27
 -6.64285733E-04   -2.15035663E-27
 -6.62785722E-04   -2.18819095E-27
 -6.61285711E-04   -2.21322862E-27
 -6.59785699E-04   -2.22409510E-27
 -6.58285688E-04   -2.21939679E-27
 -6.56785734E-04   -2.19773027E-27
 -6.55285723E-04   -2.15769115E-27
 -6.53785712E-04   -2.09788525E-27
 -6.52285700E-04   -2.01693919E-27
 -6.50785689E-04   -1.91351270E-27
 -6.49285736E-04   -1.78631196E-27
 -6.47785724E-04   -1.63410283E-27
 -6.46285713E-04   -1.45572503E-27
 -6.44785701E-04   -1.25010765E-27
 -6.43285690E-04   -1.01628473E-27
 -6.41785737E-04   -7.53411516E-28
 -6.40285725E-04   -4.60781387E-28
 -6.38785714E-04   -1.37842971E-28
 -6.37285702E-04    2.15782274E-28
 -6.35785691E-04    6.00282223E-28
 -6.34285738E-04    1.01563607E-27
 -6.32785726E-04    1.46159671E-27
 -6.31285715E-04    1.93767272E-27
 -6.29785703E-04    2.44311070E-27
 -6.28285692E-04    2.97687871E-27
 -6.26785739E-04    3.53764904E-27
 -6.25285727E-04    4.12378348E-27
 -6.23785716E-04    4.73331719E-27
 -6.22285705E-04    5.36394601E-27
 -6.20785693E-04    6.01301406E-27
 -6.19285740E-04    6.67750187E-27
 -6.17785729E-04    7.35401789E-27
 -6.16285717E-04    8.03879076E-27
 -6.14785706E-04    8.72766585E-27
 -6.13285694E-04    9.41609953E-27
 -6.11785741E-04    1.00991606E-26
 -6.10285730E-04    1.07715320E-26
 -6.08785718E-04    1.14275169E-26
 -6.07285707E-04    1.20610469E-26
 -6.05785695E-04    1.26656934E-26
 -6.04285742E-04    1.32346824E-26
 -6.02785731E-04    1.37609158E-26
 -6.01285719E-04    1.42369918E-26
 -5.99785708E-04    1.46552345E-26
 -5.98285696E-04    1.50077213E-26
 -5.96785743E-04    1.52863201E-26
 -5.95285732E-04    1.54827295E-26
 -5.93785720E-04    1.55885232E-26
 -5.92285709E-04    1.55951962E-26
 -5.90785698E-04    1.54942204E-26
 -5.89285686E-04    1.52771003E-26
 -5.87785733E-04    1.49354357E-26
 -5.86285722E-04    1.44609867E-26
 -5.84785710E-04    1.38457430E-26
 -5.83285699E-04    1.30820039E-26
 -5.81785687E-04    1.21624487E-26
 -5.80285734E-04    1.10802247E-26
 -5.78785723E-04    9.82902892E-27
 -5.77285711E-04    8.40319750E-27
 -5.75785700E-04    6.79779546E-27
 -5.74285688E-04    5.00871131E-27
 -5.72785735E-04    3.03274975E-27
 -5.71285724E-04    8.67728411E-28
 -5.69785712E-04   -1.48742536E-27
 -5.68285701E-04   -4.03257837E-27
 -5.66785689E-04   -6.76629572E-27
 -5.65285736E-04   -9.68574667E-27
 -5.63785725E-04   -1.27866110E-26
 -5.62285713E-04   -1.60629891E-26
 -5.60785702E-04   -1.95073192E-26
 -5.59285691E-04   -2.31102904E-26
 -5.57785737E-04   -2.68607724E-26
 -5.56285726E-04   -3.07457428E-26
 -5.54785714E-04   -3.47502227E-26
 -5.53285703E-04   -3.88572267E-26
 -5.51785692E-04   -4.30477174E-26
 -5.50285738E-04   -4.73005683E-26
 -5.48785727E-04   -5.15925447E-26
 -5.47285716E-04   -5.58982893E-26
 -5.45785704E-04   -6.01903274E-26
 -5.44285693E-04   -6.44390830E-26
 -5.42785740E-04   -6.86129029E-26
 -5.41285728E-04   -7.26781188E-26
 -5.39785717E-04   -7.65991088E-26
 -5.38285705E-04   -8.03383773E-26
 -5.36785694E-04   -8.38566538E-26
 -5.35285741E-04   -8.71130223E-26
 -5.33785729E-04   -9.00650569E-26
 -5.32285718E-04   -9.26689881E-26
 -5.30785706E-04   -9.48798879E-26
 -5.29285695E-04   -9.66518606E-26
 -5.27785742E-04   -9.79382955E-26
 -5.26285730E-04   -9.86920891E-26
 -5.24785719E-04   -9.88659343E-26
 -5.23285707E-04   -9.84126043E-26
 -5.21785696E-04   -9.72852604E-26
 -5.20285743E-04   -9.54377975E-26
 -5.18785731E-04   -9.28251949E-26
 -5.17285720E-04   -8.94038929E-26
 -5.15785709E-04   -8.51321679E-26
 -5.14285697E-04   -7.99705771E-26
 -5.12785686E-04   -7.38823458E-26
 -5.11285733E-04   -6.68338305E-26
 -5.09785721E-04   -5.87949681E-26
 -5.08285710E-04   -4.97397323E-26
 -5.06785698E-04   -3.96466114E-26
 -5.05285687E-04   -2.84990793E-26
 -5.03785734E-04   -1.62860796E-26
 -5.02285722E-04   -3.00250591E-27
 -5.00785711E-04    1.13503256E-26
 -4.99285699E-04    2.67642016E-26
 -4.97785688E-04    4.32235441E-26
 -4.96285735E-04    6.07049729E-26
 -4.94785723E-04    7.91768659E-26
 -4.93285712E-04    9.85989480E-26
 -4.91785700E-04    1.18921903E-25
 -4.90285689E-04    1.40087029E-25
 -4.88785736E-04    1.62025892E-25
 -4.87285724E-04    1.84660061E-25
 -4.85785713E-04    2.07900840E-25
 -4.84285702E-04    2.31649103E-25
 -4.82785719E-04    2.55795125E-25
 -4.81285708E-04    2.80218505E-25
 -4.79785725E-04    3.04788120E-25
 -4.78285714E-04    3.29362173E-25
 -4.76785703E-04    3.53788289E-25
 -4.75285720E-04    3.77903693E-25
 -4.73785709E-04    4.01535476E-25
 -4.72285727E-04    4.24500943E-25
 -4.70785715E-04    4.46607981E-25
 -4.69285704E-04    4.67655628E-25
 -4.67785721E-04    4.87434688E-25
 -4.66285710E-04    5.05728274E-25
 -4.64785728E-04    5.22312793E-25
 -4.63285716E-04    5.36958735E-25
 -4.61785705E-04    5.49431612E-25
 -4.60285723E-04    5.59493188E-25
 -4.58785711E-04    5.66902564E-25
 -4.57285729E-04    5.71417412E-25
 -4.55785717E-04    5.72795502E-25
 -4.54285706E-04    5.70796036E-25
 -4.52785724E-04    5.65181269E-25
 -4.51285712E-04    5.55718242E-25
 -4.49785701E-04    5.42180501E-25
 -4.48285718E-04    5.24349878E-25
 -4.46785707E-04    5.02018360E-25
 -4.45285725E-04    4.74990259E-25
 -4.43785713E-04    4.43084090E-25
 -4.42285702E-04    4.06134757E-25
 -4.40785720E-04    3.63995583E-25
 -4.39285708E-04    3.16540619E-25
 -4.37785726E-04    2.63666798E-25
 -4.36285714E-04    2.05296170E-25
 -4.34785703E-04    1.41378098E-25
 -4.33285721E-04    7.18915012E-26
 -4.31785709E-04   -3.15296880E-27
 -4.30285727E-04   -8.37107885E-26